# vtk DataFile Version 4.2
vtk output
ASCII
DATASET POLYDATA
POINTS 14116 float
20.6062 -92.1556 56.29 21.33 -93.0428 56.1003 21.4337 -92.0836 55.2346 
-24.3109 -117.817 34.1456 -23.4826 -117.692 35.2444 -24.2074 -116.757 35.0268 
46.9952 -171.263 -4.63796 46.1071 -172.085 -3.87562 46.9818 -172.633 -4.63961 
-25.672 -80.0648 35.4759 -25.7189 -81.2771 35.825 -24.6796 -80.4487 36.2353 
-34.2894 -31.3134 10.9457 -33.9421 -30.0584 10.915 -34.7977 -30.3464 9.89676 
29.1829 -44.3754 22.3931 30.2785 -44.6168 22.8274 29.8756 -44.3378 21.7368 
-2.18115 -47.0399 23.4947 -1.20341 -46.036 23.5878 -2.2374 -45.8883 22.7644 
26.9627 -114.943 54.1547 27.8463 -114.142 53.3445 26.9549 -113.511 54.0004 
-39.6176 -44.5318 4.23295 -39.6906 -45.8436 3.80011 -38.8932 -45.604 4.91758 
-7.5509 -115.827 51.7096 -7.56075 -114.236 51.8094 -8.33241 -114.803 51.0762 
19.3868 -106.127 56.5388 20.4747 -107.046 56.3858 20.5106 -105.748 56.2231 
-24.6406 -81.8347 36.6493 26.8926 -116.357 54.2818 27.8968 -115.716 53.4536 
46.6295 -119.345 36.1937 46.5984 -120.432 35.2591 47.6291 -119.474 35.0362 
-28.8832 -85.4309 34.3316 -27.8638 -85.9972 35.1089 -27.8606 -84.5393 34.9419 
4.89486 -96.2975 57.4673 3.65598 -96.9746 56.9761 4.98153 -97.6529 56.9518 
51.5304 -81.4141 37.173 50.4447 -81.9008 38.0055 51.4438 -82.7593 37.5677 
48.5898 -111.288 38.8799 49.4958 -110.342 38.3965 48.5231 -109.852 39.4683 
57.9853 -45.9092 12.9611 59.0127 -45.193 12.4218 57.9886 -44.77 13.2559 
51.3335 -88.8251 38.7675 51.3176 -90.3487 38.9545 52.2362 -89.5285 38.1962 
49.3787 -81.0105 38.4672 50.4653 -80.5202 37.642 52.2358 -90.9811 38.3202 
53.2988 -103.382 36.6826 54.3474 -103.681 35.6683 54.088 -102.594 36.134 
49.1707 -94.5989 40.7522 49.1571 -96.0811 40.761 50.1894 -95.3646 40.0104 
-3.92948 -160.746 -4.73007 -5.3223 -161.14 -5.30723 -4.52573 -161.982 -4.68907 
22.7214 -113.127 56.8387 22.6821 -114.576 57.032 23.7457 -113.96 56.2236 
27.8787 -117.183 53.4629 28.8926 -116.472 52.6742 50.2173 -93.9056 39.9895 
-28.4678 -54.1331 16.6026 -28.3386 -55.5632 17.1505 -27.5495 -54.5075 17.4959 
28.7226 -107.622 52.5405 28.7084 -106.147 52.641 27.5746 -106.941 53.1785 
28.7514 -109.074 52.4684 27.5756 -108.456 53.172 27.7058 -109.812 53.0538 
-3.52806 -91.7258 50.0168 -2.60528 -91.0424 50.6283 -3.36187 -90.3267 49.9038 
2.67047 -72.7406 45.8917 2.12079 -71.8095 45.1358 1.39873 -73.2933 45.1834 
6.78618 -70.9065 49.0355 5.7477 -70.656 48.0859 6.22485 -71.8479 48.3996 
26.9679 -112.072 53.7805 27.8491 -111.21 53.0456 26.9597 -110.762 53.5722 
51.2963 -91.7981 39.0797 40.0178 -111.169 45.6998 40.0845 -109.851 45.9572 
38.9302 -110.575 46.5245 28.8578 -111.933 52.4514 27.8517 -112.679 53.1987 
28.8503 -113.402 52.5296 29.9453 -112.695 51.7552 46.0123 -99.9532 43.1892 
47.0524 -100.794 42.3581 47.0158 -99.236 42.377 51.1354 -102.249 38.7145 
52.1195 -101.412 37.962 51.1525 -100.766 38.8976 -23.6139 -107.11 39.1195 
-24.3359 -105.93 38.6512 -24.7547 -107.221 37.8754 1.77759 -114.165 59.0484 
0.703743 -114.876 58.5089 1.78537 -115.668 59.1582 25.8327 -117.017 55.0939 
24.8334 -116.242 55.8366 24.8021 -117.638 55.8526 32.1443 -102.333 51.19 
33.3176 -103.008 50.5569 33.2674 -101.768 50.5805 32.1125 -101 51.1762 
32.1657 -99.5587 51.0521 31.0281 -100.174 51.7534 47.0373 -94.4746 42.1797 
47.0419 -92.9745 42.0033 46.0213 -93.6663 42.7378 33.4565 -111.861 49.6374 
33.4801 -113.306 49.4357 34.5616 -112.514 48.8447 48.1179 -92.2627 41.2903 
48.1146 -93.814 41.4242 57.603 -95.6368 33.4682 58.5989 -95.5118 32.3563 
58.0689 -94.6722 32.954 50.2443 -92.4556 39.8957 49.2083 -91.6547 40.5262 
49.1815 -93.1248 40.6719 26.7189 -122.054 53.4113 26.6511 -123.54 52.7852 
27.6853 -122.608 52.4058 46.0428 -101.522 43.1586 47.0561 -102.324 42.2422 
32.3763 -120.264 48.9976 33.4327 -119.255 48.3813 32.4959 -118.63 49.3618 
45.9861 -92.0623 42.5094 25.1199 -98.0189 54.876 23.9162 -97.2962 55.4738 
24.0286 -98.7499 55.4716 53.1604 -97.6157 37.4674 52.1812 -98.4452 38.2214 
53.1655 -99.0975 37.3577 58.1186 -96.6779 32.8339 59.0604 -96.7569 31.7896 
25.0101 -96.6067 54.711 33.2986 -104.446 50.4845 32.1732 -103.741 51.1312 
32.1783 -105.197 51.0232 28.8425 -110.472 52.4018 29.9395 -111.226 51.7439 
29.9083 -109.784 51.7784 52.2567 -92.4537 38.413 53.2592 -93.1699 37.6549 
53.2483 -91.6851 37.5982 52.4947 -82.2063 36.6653 53.5589 -81.7253 35.698 
52.6305 -80.9406 36.2592 56.9858 -106.347 32.183 57.7196 -105.049 31.7442 
56.7077 -105.041 32.8316 21.589 -115.208 57.797 21.5719 -116.681 57.8545 
22.6659 -116.053 57.2007 37.8988 -105.692 48.0439 37.943 -104.28 48.1743 
36.7665 -105.032 48.6854 -23.1236 -99.4571 40.4671 -23.1201 -100.911 40.4083 
-22.193 -100.176 41.356 36.0053 -95.979 49.1489 37.1318 -96.7043 48.7206 
37.2117 -95.3571 48.5443 39.5496 -91.3707 46.3699 40.6313 -90.8059 45.5268 
39.5929 -89.9545 45.9429 45.9317 -96.5415 43.175 45.9142 -98.0962 43.2318 
46.9788 -97.4367 42.4363 46.9958 -95.9111 42.3465 53.8463 -74.8924 33.2972 
54.8982 -74.4464 32.3175 53.8944 -73.5005 32.7277 59.6487 -92.8495 31.2968 
59.1959 -91.5317 31.8359 58.6312 -92.7492 32.4362 45.0247 -100.686 44.0127 
44.9012 -95.7085 43.8195 44.8844 -97.1684 43.9882 26.8126 -117.783 54.2899 
25.7872 -118.452 55.0487 -16.8612 -52.264 23.4418 -18.1241 -52.9388 23.0683 
-16.9521 -53.4821 23.3568 57.1025 -100.31 33.528 56.0845 -99.5652 34.6194 
56.1 -101.044 34.4572 35.5977 -108.742 48.7943 36.7229 -109.361 48.0726 
36.7236 -107.927 48.2962 49.2101 -85.339 39.5659 50.3027 -86.1931 39.0417 
50.3266 -84.7652 38.7609 35.8672 -101.579 49.3732 34.6158 -102.331 49.931 
35.6789 -102.916 49.3958 35.6073 -110.189 48.57 29.9189 -102.351 52.4352 
31.0358 -103.057 51.775 31.0046 -101.64 51.8308 38.2569 -98.5901 48.3197 
39.3521 -97.6171 47.6857 38.1645 -97.4414 48.2932 32.3716 -112.653 50.2412 
32.4336 -114.094 50.0869 23.7384 -115.421 56.4436 29.94 -117.201 51.7924 
31.0651 -116.41 50.9166 29.917 -115.68 51.855 23.7431 -116.866 56.5707 
23.7865 -118.185 56.4922 43.8226 -97.8246 44.7767 44.895 -98.7505 44.066 
42.771 -93.9704 44.9408 41.7066 -94.5495 45.7623 42.772 -95.4224 45.2089 
57.0713 -98.7417 33.7713 57.1729 -97.2229 33.8481 56.1392 -98.01 34.7651 
28.8859 -117.922 52.6339 27.8312 -118.491 53.4481 51.333 -87.1388 38.5037 
51.397 -85.6651 38.2514 40.61 -102.971 46.9232 41.6662 -102.163 46.3796 
40.5686 -101.462 47.0787 51.2599 -93.2146 39.1938 52.2381 -93.917 38.4492 
29.9031 -103.829 52.3237 31.0369 -104.51 51.6787 50.2934 -91.0459 39.7564 
49.2125 -90.1115 40.3512 33.4912 -114.749 49.2638 22.662 -118.88 57.095 
22.6859 -117.441 57.2027 21.5615 -118.166 57.7763 -3.32996 -183.779 -5.04164 
-2.70622 -182.554 -4.83396 -3.65558 -182.638 -5.80249 41.7174 -99.1608 46.3844 
42.7896 -100.054 45.6822 42.774 -98.4948 45.592 40.7491 -89.4173 45.0741 
39.7631 -88.591 45.4271 54.2297 -43.0251 15.1055 54.1535 -41.7007 15.4012 
53.0379 -42.4297 15.89 26.7985 -119.15 54.1923 34.4729 -109.571 49.291 
39.4257 -99.2445 47.7345 54.1407 -99.7272 36.4329 54.1366 -98.2606 36.5874 
51.2304 -94.6578 39.2439 39.5153 -94.1845 47.0873 39.51 -95.6934 47.3701 
40.6135 -95.0686 46.5758 40.6288 -93.6659 46.271 53.211 -96.1094 37.5572 
54.2209 -95.2984 36.8032 53.2309 -94.6422 37.6606 54.1641 -96.7696 36.6695 
-3.82915 -101.335 53.8252 -2.68175 -100.623 54.4013 -3.84572 -99.8394 53.9031 
-11.2136 -118.21 47.9234 -10.8528 -116.672 48.6144 -11.8732 -117.164 47.475 
21.6127 -113.739 57.6148 -22.0957 -113.476 38.8393 -22.0278 -112.321 39.335 
-23.0557 -112.378 38.3174 52.2834 -88.0473 37.9774 -9.43888 -106.458 50.4743 
-9.43954 -104.996 50.5238 -10.5268 -105.68 49.8045 41.7033 -97.5193 46.22 
40.6189 -96.661 46.84 40.6229 -98.2409 47.0267 41.6933 -96.0045 46.0275 
-6.17145 -105.814 52.6064 -6.14501 -107.294 52.6145 -5.00923 -106.661 53.2834 
45.9555 -95.0856 42.9805 32.1725 -109.717 50.5583 33.331 -110.396 49.8469 
33.2967 -108.929 50.0019 41.7856 -91.6979 45.0354 41.7198 -93.1135 45.4279 
42.7425 -92.6068 44.6407 41.6901 -100.686 46.4531 40.5999 -99.8986 47.1028 
29.9204 -97.8213 51.9473 29.9234 -99.2609 52.2901 31.059 -98.6986 51.5266 
37.8508 -108.541 47.5584 37.8316 -109.957 47.3462 29.9107 -100.828 52.4417 
36.7432 -106.488 48.5152 35.6136 -105.819 49.1916 35.5974 -107.288 49.0236 
43.8356 -94.8557 44.3942 43.8316 -96.3018 44.609 34.5474 -111.043 49.0669 
35.6167 -111.695 48.3058 39.4145 -102.254 47.6015 52.2147 -95.3981 38.4118 
51.2039 -96.1375 39.1921 35.9477 -97.4228 49.2846 37.0532 -97.9277 48.8396 
55.3777 -103.724 34.632 56.3684 -103.712 33.5718 56.0278 -102.48 34.267 
50.2958 -89.5026 39.5686 55.0728 -106.203 34.2295 55.9939 -106.295 33.2635 
55.704 -105.04 33.925 22.6211 -120.463 56.7711 21.5334 -119.806 57.5392 
26.4997 -100.212 54.2597 27.6403 -100.907 53.6573 27.6642 -99.3924 53.623 
39.4348 -100.761 47.7176 38.2727 -100.058 48.3243 48.091 -87.4082 40.6099 
49.2105 -86.7941 39.8422 48.0965 -85.9565 40.3433 54.5806 -105.137 35.0302 
37.878 -107.122 47.8093 39.0348 -106.324 47.3248 46.0741 -103.116 42.9698 
55.1439 -97.3616 35.7563 55.2166 -95.8889 35.8815 37.2564 -93.9131 48.3225 
36.1332 -93.0665 48.795 36.0701 -94.5234 48.9938 33.8237 -167.271 -0.253228 
35.169 -167.838 0.214448 35.0362 -166.481 -0.295134 34.4464 -108.121 49.4965 
33.3033 -107.459 50.1818 55.3064 -88.373 35.5108 55.268 -89.9906 35.7132 
56.2353 -89.3788 34.7845 50.2966 -87.7216 39.3044 43.4875 -105.856 44.6642 
43.4541 -104.349 44.9404 42.3277 -105.258 45.6226 34.5515 -113.961 48.5915 
34.5354 -115.392 48.3793 44.9216 -94.2748 43.5512 40.1674 -106.954 46.5817 
39.0222 -107.759 47.0506 40.1058 -105.475 46.887 25.2507 -104.077 54.5502 
26.416 -103.269 54.0966 25.2637 -102.584 54.6911 44.1969 -152.917 -3.73178 
45.3154 -152.13 -4.03623 44.109 -151.666 -3.46073 44.8987 -92.7264 43.2743 
38.2716 -101.542 48.2278 20.4058 -117.384 58.4244 26.3964 -104.765 53.9301 
53.4983 -83.0782 36.0986 24.8656 -111.912 55.1565 25.9334 -112.721 54.6106 
25.9624 -111.321 54.3385 39.5305 -92.7905 46.752 43.8665 -99.4561 44.8955 
26.4601 -101.721 54.2109 27.6104 -102.428 53.601 57.0951 -94.5443 34.0253 
[...]
POINT_DATA 14116
COLOR_SCALARS RGB 3
0.494118 0.258824 0.266667 0.505882 0.301961 0.301961 0.454902 0.258824 0.247059 
0.439216 0.309804 0.266667 0.466667 0.321569 0.27451 
0.45098 0.301961 0.266667 0.454902 0.266667 0.219608 
0.454902 0.27451 0.219608 0.454902 0.290196 0.211765 
0.760784 0.560784 0.537255 0.772549 0.560784 0.54902 
0.780392 0.572549 0.509804 0.372549 0.278431 0.266667 
0.345098 0.298039 0.247059 0.321569 0.235294 0.235294 
0.321569 0.2 0.219608 0.396078 0.247059 0.188235 
0.356863 0.203922 0.12549 0.329412 0.223529 0.211765 
0.321569 0.219608 0.203922 0.364706 0.27451 0.247059 
0.639216 0.462745 0.443137 0.603922 0.443137 0.411765 
0.615686 0.454902 0.431373 0.4 0.266667 0.243137 
0.411765 0.278431 0.298039 0.376471 0.254902 0.223529 
0.552941 0.411765 0.427451 0.564706 0.419608 0.376471 
0.54902 0.384314 0.364706 0.737255 0.54902 0.505882 
0.717647 0.521569 0.462745 0.717647 0.537255 0.482353 
0.792157 0.596078 0.560784 0.619608 0.47451 0.454902 
0.639216 0.462745 0.45098 0.439216 0.266667 0.231373 
0.411765 0.266667 0.223529 0.431373 0.290196 0.231373 
0.713725 0.521569 0.505882 0.717647 0.54902 0.529412 
0.768627 0.580392 0.529412 0.682353 0.482353 0.411765 
0.658824 0.47451 0.431373 0.615686 0.45098 0.388235 
0.792157 0.580392 0.521569 0.815686 0.603922 0.537255 
0.792157 0.541176 0.505882 0.560784 0.356863 0.313725 
0.560784 0.356863 0.309804 0.564706 0.384314 0.341176 
0.45098 0.301961 0.258824 0.47451 0.313725 0.286275 
0.494118 0.345098 0.301961 0.780392 0.580392 0.54902 
0.811765 0.607843 0.541176 0.780392 0.572549 0.494118 
0.843137 0.615686 0.584314 0.811765 0.607843 0.560784 
0.768627 0.560784 0.505882 0.619608 0.419608 0.372549 
0.615686 0.427451 0.376471 0.658824 0.466667 0.372549 
0.780392 0.580392 0.529412 0.768627 0.560784 0.537255 
0.74902 0.537255 0.521569 0.592157 0.384314 0.321569 
0.580392 0.388235 0.309804 0.592157 0.396078 0.313725 
0.694118 0.498039 0.486275 0.745098 0.54902 0.494118 
0.713725 0.517647 0.466667 0.639216 0.45098 0.419608 
0.627451 0.454902 0.4 0.788235 0.541176 0.505882 
0.45098 0.309804 0.298039 0.505882 0.345098 0.345098 
0.494118 0.364706 0.321569 0.619608 0.439216 0.384314 
0.619608 0.439216 0.372549 0.596078 0.439216 0.356863 
0.596078 0.439216 0.376471 0.627451 0.443137 0.372549 
0.627451 0.462745 0.407843 0.290196 0.14902 0.156863 
0.321569 0.14902 0.145098 0.419608 0.203922 0.188235 
0.592157 0.443137 0.396078 0.627451 0.521569 0.498039 
0.537255 0.364706 0.321569 0.572549 0.396078 0.352941 
0.572549 0.384314 0.356863 0.607843 0.443137 0.427451 
0.627451 0.47451 0.419608 0.603922 0.431373 0.396078 
0.607843 0.462745 0.4 0.8 0.560784 0.529412 
0.635294 0.462745 0.384314 0.619608 0.454902 0.411765 
0.603922 0.454902 0.4 0.615686 0.466667 0.388235 
0.635294 0.454902 0.407843 0.603922 0.462745 0.388235 
0.627451 0.482353 0.439216 0.713725 0.517647 0.462745 
0.713725 0.529412 0.454902 0.733333 0.541176 0.47451 
0.67451 0.45098 0.407843 0.658824 0.498039 0.419608 
0.682353 0.47451 0.443137 0.552941 0.396078 0.396078 
0.541176 0.411765 0.376471 0.552941 0.388235 0.376471 
0.772549 0.580392 0.584314 0.768627 0.552941 0.564706 
0.772549 0.584314 0.560784 0.658824 0.494118 0.454902 
0.690196 0.517647 0.45098 0.690196 0.498039 0.462745 
0.647059 0.466667 0.407843 0.65098 0.466667 0.4 
0.627451 0.454902 0.411765 0.615686 0.462745 0.411765 
0.627451 0.462745 0.372549 0.635294 0.466667 0.396078 
0.811765 0.580392 0.509804 0.815686 0.603922 0.521569 
0.803922 0.596078 0.537255 0.584314 0.431373 0.372549 
0.564706 0.419608 0.364706 0.580392 0.431373 0.396078 
0.815686 0.603922 0.541176 0.792157 0.607843 0.537255 
0.607843 0.419608 0.372549 0.607843 0.411765 0.364706 
0.627451 0.439216 0.384314 0.823529 0.619608 0.552941 
0.811765 0.603922 0.552941 0.803922 0.564706 0.521569 
0.564706 0.396078 0.384314 0.521569 0.345098 0.329412 
0.541176 0.364706 0.329412 0.713725 0.537255 0.443137 
0.694118 0.494118 0.439216 0.482353 0.313725 0.278431 
0.494118 0.313725 0.266667 0.505882 0.356863 0.321569 
0.803922 0.560784 0.541176 0.592157 0.411765 0.376471 
0.615686 0.431373 0.364706 0.592157 0.4 0.333333 
0.713725 0.482353 0.431373 0.67451 0.498039 0.439216 
0.690196 0.486275 0.45098 0.607843 0.419608 0.341176 
0.596078 0.388235 0.352941 0.603922 0.419608 0.388235 
0.627451 0.443137 0.4 0.639216 0.431373 0.396078 
0.639216 0.439216 0.4 0.607843 0.454902 0.4 
0.603922 0.443137 0.396078 0.603922 0.427451 0.384314 
0.780392 0.596078 0.517647 0.74902 0.552941 0.498039 
0.733333 0.54902 0.498039 0.788235 0.560784 0.505882 
0.772549 0.537255 0.498039 0.768627 0.552941 0.494118 
0.560784 0.372549 0.329412 0.552941 0.396078 0.329412 
0.584314 0.388235 0.333333 0.760784 0.560784 0.54902 
0.756863 0.541176 0.54902 0.717647 0.537255 0.521569 
0.658824 0.494118 0.439216 0.713725 0.541176 0.466667 
0.662745 0.47451 0.427451 0.647059 0.462745 0.439216 
0.627451 0.47451 0.431373 0.619608 0.466667 0.454902 
0.694118 0.486275 0.431373 0.701961 0.529412 0.454902 
0.690196 0.505882 0.466667 0.717647 0.505882 0.45098 
0.745098 0.521569 0.486275 0.701961 0.494118 0.454902 
0.760784 0.529412 0.486275 0.745098 0.521569 0.47451 
0.74902 0.54902 0.509804 0.803922 0.580392 0.509804 
0.737255 0.537255 0.509804 0.694118 0.529412 0.47451 
0.717647 0.521569 0.466667 0.580392 0.407843 0.345098 
0.619608 0.431373 0.372549 0.615686 0.419608 0.372549 
0.713725 0.529412 0.462745 0.768627 0.584314 0.482353 
0.756863 0.552941 0.509804 0.65098 0.462745 0.439216 
0.647059 0.494118 0.45098 0.619608 0.419608 0.427451 
0.627451 0.45098 0.4 0.639216 0.466667 0.419608 
0.619608 0.454902 0.376471 0.639216 0.45098 0.376471 
0.627451 0.439216 0.388235 0.627451 0.454902 0.4 
0.635294 0.45098 0.4 0.647059 0.466667 0.407843 
0.843137 0.615686 0.592157 0.811765 0.584314 0.537255 
0.847059 0.607843 0.560784 0.662745 0.486275 0.431373 
0.635294 0.47451 0.407843 0.67451 0.494118 0.427451 
0.615686 0.45098 0.4 0.603922 0.443137 0.388235 
0.603922 0.431373 0.388235 0.615686 0.454902 0.427451 
0.745098 0.580392 0.521569 0.756863 0.603922 0.572549 
0.733333 0.54902 0.486275 0.572549 0.427451 0.372549 
0.572549 0.419608 0.364706 0.690196 0.505882 0.486275 
0.592157 0.431373 0.388235 0.584314 0.419608 0.364706 
0.627451 0.454902 0.4 0.705882 0.521569 0.494118 
0.705882 0.517647 0.47451 0.745098 0.54902 0.505882 
0.737255 0.54902 0.462745 0.756863 0.54902 0.47451 
0.737255 0.572549 0.498039 0.780392 0.552941 0.505882 
0.603922 0.439216 0.356863 0.627451 0.439216 0.4 
0.615686 0.411765 0.384314 0.619608 0.443137 0.4 
0.619608 0.45098 0.4 0.772549 0.552941 0.509804 
0.8 0.607843 0.537255 0.705882 0.517647 0.494118 
0.74902 0.521569 0.482353 0.74902 0.541176 0.541176 
0.792157 0.560784 0.521569 0.756863 0.537255 0.494118 
0.619608 0.431373 0.407843 0.615686 0.443137 0.407843 
0.827451 0.596078 0.54902 0.823529 0.592157 0.529412 
0.580392 0.427451 0.341176 0.694118 0.498039 0.486275 
0.72549 0.517647 0.494118 0.733333 0.521569 0.509804 
0.364706 0.219608 0.188235 0.356863 0.192157 0.14902 
0.364706 0.203922 0.14902 0.780392 0.592157 0.537255 
0.74902 0.552941 0.505882 0.74902 0.564706 0.509804 
0.760784 0.552941 0.486275 0.737255 0.517647 0.486275 
0.333333 0.192157 0.145098 0.345098 0.235294 0.211765 
0.309804 0.176471 0.160784 0.647059 0.454902 0.439216 
0.635294 0.454902 0.396078 0.745098 0.592157 0.54902 
0.662745 0.45098 0.388235 0.67451 0.462745 0.443137 
0.756863 0.541176 0.509804 0.717647 0.521569 0.466667 
0.74902 0.560784 0.494118 0.760784 0.537255 0.509804 
0.74902 0.552941 0.517647 0.72549 0.498039 0.443137 
0.694118 0.494118 0.439216 0.705882 0.529412 0.47451 
0.690196 0.505882 0.419608 0.615686 0.443137 0.388235 
0.615686 0.462745 0.411765 0.592157 0.411765 0.372549 
0.482353 0.333333 0.309804 0.509804 0.364706 0.321569 
0.486275 0.384314 0.313725 0.74902 0.552941 0.521569 
0.521569 0.388235 0.352941 0.529412 0.376471 0.345098 
0.541176 0.364706 0.345098 0.756863 0.54902 0.509804 
0.54902 0.427451 0.407843 0.560784 0.427451 0.352941 
0.560784 0.419608 0.388235 0.772549 0.537255 0.529412 
0.768627 0.564706 0.505882 0.760784 0.584314 0.537255 
0.72549 0.541176 0.509804 0.580392 0.411765 0.352941 
0.592157 0.411765 0.364706 0.584314 0.431373 0.384314 
0.772549 0.572549 0.537255 0.607843 0.431373 0.419608 
0.584314 0.427451 0.372549 0.619608 0.45098 0.388235 
0.74902 0.541176 0.462745 0.737255 0.552941 0.494118 
0.745098 0.560784 0.505882 0.745098 0.584314 0.521569 
0.768627 0.564706 0.54902 0.572549 0.431373 0.364706 
0.615686 0.45098 0.384314 0.627451 0.45098 0.384314 
0.635294 0.454902 0.407843 0.627451 0.45098 0.396078 
0.615686 0.427451 0.396078 0.65098 0.494118 0.439216 
0.682353 0.494118 0.419608 0.619608 0.439216 0.396078 
0.772549 0.572549 0.486275 0.756863 0.560784 0.498039 
0.592157 0.419608 0.396078 0.596078 0.431373 0.356863 
0.705882 0.592157 0.541176 0.74902 0.537255 0.494118 
0.756863 0.529412 0.482353 0.701961 0.529412 0.45098 
0.72549 0.54902 0.466667 0.596078 0.407843 0.388235 
0.560784 0.4 0.356863 0.592157 0.356863 0.333333 
0.815686 0.592157 0.537255 0.584314 0.407843 0.345098 
0.592157 0.396078 0.341176 0.619608 0.396078 0.352941 
0.690196 0.47451 0.443137 0.713725 0.505882 0.482353 
0.603922 0.443137 0.396078 0.603922 0.454902 0.411765 
0.596078 0.443137 0.4 0.74902 0.552941 0.54902 
0.72549 0.552941 0.498039 0.847059 0.603922 0.560784 
0.847059 0.619608 0.560784 0.847059 0.619608 0.607843 
0.619608 0.427451 0.384314 0.658824 0.482353 0.431373 
0.682353 0.494118 0.427451 0.701961 0.482353 0.431373 
0.670588 0.454902 0.396078 0.67451 0.462745 0.427451 
0.701961 0.517647 0.454902 0.713725 0.505882 0.482353 
0.694118 0.509804 0.466667 0.635294 0.396078 0.333333 
0.615686 0.396078 0.301961 0.615686 0.388235 0.329412 
0.615686 0.454902 0.356863 0.619608 0.45098 0.4 
0.701961 0.529412 0.462745 0.705882 0.509804 0.454902 
0.65098 0.462745 0.407843 0.792157 0.596078 0.564706 
0.647059 0.486275 0.411765 0.690196 0.517647 0.427451 
0.690196 0.498039 0.466667 0.54902 0.396078 0.329412 
0.537255 0.364706 0.356863 0.8 0.564706 0.521569 
0.662745 0.505882 0.431373 0.647059 0.462745 0.431373 
0.639216 0.498039 0.443137 0.592157 0.427451 0.396078 
0.592157 0.407843 0.345098 0.596078 0.4 0.372549 
0.596078 0.352941 0.298039 0.537255 0.352941 0.286275 
0.529412 0.329412 0.278431 0.788235 0.560784 0.509804 
0.717647 0.517647 0.498039 0.772549 0.560784 0.517647 
0.596078 0.431373 0.356863 0.737255 0.572549 0.509804 
0.658824 0.482353 0.439216 0.65098 0.505882 0.498039 
0.635294 0.47451 0.431373 0.733333 0.521569 0.466667 
0.737255 0.541176 0.521569 0.603922 0.411765 0.364706 
0.607843 0.411765 0.384314 0.65098 0.443137 0.388235 
0.658824 0.443137 0.419608 0.670588 0.466667 0.454902 
0.505882 0.352941 0.313725 0.505882 0.345098 0.286275 
0.517647 0.356863 0.286275 0.690196 0.486275 0.462745 
0.682353 0.494118 0.431373 0.835294 0.619608 0.560784 
0.647059 0.509804 0.439216 0.662745 0.482353 0.431373 
0.639216 0.466667 0.4 0.65098 0.482353 0.407843 
0.768627 0.564706 0.505882 0.772549 0.552941 0.494118 
0.756863 0.552941 0.529412 0.619608 0.462745 0.388235 
0.635294 0.443137 0.4 0.701961 0.498039 0.498039 
0.627451 0.466667 0.384314 0.858824 0.635294 0.541176 
0.670588 0.462745 0.454902 0.67451 0.509804 0.47451 
0.560784 0.419608 0.419608 0.54902 0.431373 0.4 
0.560784 0.419608 0.388235 0.67451 0.509804 0.466667 
0.603922 0.439216 0.388235 0.658824 0.482353 0.4 
0.658824 0.466667 0.427451 0.580392 0.407843 0.388235 
0.560784 0.407843 0.352941 0.733333 0.552941 0.537255 
0.690196 0.517647 0.47451 0.627451 0.47451 0.407843 
0.717647 0.529412 0.486275 0.74902 0.529412 0.505882 
0.835294 0.592157 0.564706 0.662745 0.47451 0.486275 
0.662745 0.466667 0.443137 0.690196 0.486275 0.462745 
0.682353 0.509804 0.411765 0.635294 0.454902 0.443137 
0.615686 0.419608 0.396078 0.54902 0.388235 0.333333 
0.552941 0.407843 0.352941 0.854902 0.619608 0.592157 
0.827451 0.615686 0.564706 0.596078 0.411765 0.376471 
0.552941 0.427451 0.364706 0.564706 0.443137 0.407843 
0.572549 0.45098 0.396078 0.682353 0.47451 0.419608 
0.658824 0.443137 0.4 0.682353 0.462745 0.384314 
0.592157 0.427451 0.384314 0.580392 0.439216 0.384314 
0.619608 0.462745 0.372549 0.607843 0.427451 0.376471 
0.615686 0.466667 0.431373 0.584314 0.427451 0.372549 
0.639216 0.482353 0.431373 0.843137 0.627451 0.552941 
0.607843 0.45098 0.396078 0.619608 0.443137 0.396078 
0.639216 0.431373 0.376471 0.639216 0.454902 0.411765 
0.662745 0.494118 0.427451 0.376471 0.203922 0.211765 
0.768627 0.541176 0.529412 0.72549 0.537255 0.521569 
0.756863 0.54902 0.505882 0.592157 0.4 0.333333 
0.713725 0.537255 0.509804 0.67451 0.47451 0.431373 
0.619608 0.431373 0.431373 0.552941 0.376471 0.333333 
0.619608 0.443137 0.388235 0.603922 0.427451 0.384314 
0.635294 0.427451 0.384314 0.627451 0.466667 0.411765 
0.54902 0.341176 0.278431 0.580392 0.388235 0.329412 
0.592157 0.376471 0.309804 0.592157 0.372549 0.329412 
0.607843 0.407843 0.356863 0.560784 0.372549 0.333333 
0.580392 0.376471 0.341176 0.843137 0.627451 0.584314 
0.835294 0.607843 0.54902 0.827451 0.603922 0.505882 
0.627451 0.45098 0.4 0.603922 0.427451 0.376471 
0.65098 0.47451 0.427451 0.635294 0.454902 0.4 
0.521569 0.352941 0.290196 0.486275 0.333333 0.298039 
0.498039 0.345098 0.278431 0.552941 0.419608 0.372549 
0.647059 0.486275 0.396078 0.65098 0.454902 0.419608 
0.627451 0.45098 0.396078 0.603922 0.396078 0.352941 
0.607843 0.431373 0.364706 0.584314 0.4 0.345098 
0.419608 0.2 0.188235 0.65098 0.45098 0.419608 
0.615686 0.45098 0.376471 0.8 0.552941 0.486275 
0.670588 0.560784 0.494118 0.647059 0.47451 0.45098 
0.615686 0.454902 0.388235 0.603922 0.462745 0.396078 
0.607843 0.439216 0.396078 0.603922 0.443137 0.388235 
0.682353 0.509804 0.462745 0.603922 0.4 0.364706 
0.705882 0.517647 0.466667 0.592157 0.407843 0.376471 
0.596078 0.431373 0.372549 0.627451 0.45098 0.384314 
0.572549 0.376471 0.352941 0.8 0.607843 0.537255 
0.823529 0.603922 0.564706 0.466667 0.290196 0.231373 
0.505882 0.321569 0.254902 0.494118 0.309804 0.243137 
0.717647 0.517647 0.45098 0.717647 0.505882 0.466667 
0.670588 0.486275 0.439216 0.552941 0.396078 0.376471 
0.596078 0.439216 0.396078 0.768627 0.521569 0.486275 
0.572549 0.419608 0.376471 0.564706 0.419608 0.376471 
0.847059 0.619608 0.560784 0.780392 0.596078 0.541176 
0.521569 0.364706 0.313725 0.517647 0.341176 0.286275 
0.529412 0.345098 0.309804 0.580392 0.427451 0.388235 
0.580392 0.419608 0.372549 0.564706 0.419608 0.376471 
0.635294 0.537255 0.509804 0.658824 0.517647 0.498039 
0.627451 0.505882 0.498039 0.647059 0.482353 0.486275 
0.65098 0.45098 0.388235 0.67451 0.486275 0.427451 
0.67451 0.47451 0.4 0.635294 0.45098 0.4 
0.615686 0.431373 0.396078 0.854902 0.619608 0.537255 
0.843137 0.619608 0.580392 0.482353 0.309804 0.278431 
0.509804 0.329412 0.298039 0.517647 0.333333 0.290196 
0.564706 0.431373 0.376471 0.572549 0.439216 0.4 
0.580392 0.439216 0.4 0.572549 0.427451 0.4 
0.607843 0.505882 0.462745 0.596078 0.47451 0.47451 
0.690196 0.505882 0.482353 0.607843 0.454902 0.431373 
0.635294 0.45098 0.396078 0.619608 0.431373 0.388235 
0.603922 0.466667 0.443137 0.607843 0.486275 0.45098 
0.592157 0.462745 0.427451 0.733333 0.529412 0.498039 
0.607843 0.419608 0.384314 0.639216 0.466667 0.396078 
0.690196 0.462745 0.427451 0.431373 0.309804 0.301961 
0.462745 0.301961 0.235294 0.494118 0.345098 0.329412 
0.835294 0.596078 0.537255 0.811765 0.603922 0.564706 
0.827451 0.603922 0.521569 0.603922 0.443137 0.364706 
0.772549 0.596078 0.541176 0.690196 0.521569 0.486275 
0.694118 0.505882 0.47451 0.517647 0.321569 0.278431 
0.564706 0.345098 0.290196 0.505882 0.321569 0.290196 
0.592157 0.419608 0.372549 0.603922 0.427451 0.388235 
0.564706 0.411765 0.384314 0.690196 0.505882 0.486275 
0.682353 0.486275 0.482353 0.639216 0.439216 0.4 
0.772549 0.517647 0.509804 0.72549 0.529412 0.505882 
0.745098 0.552941 0.505882 0.662745 0.486275 0.443137 
0.658824 0.45098 0.431373 0.615686 0.47451 0.466667 
0.635294 0.498039 0.454902 0.615686 0.47451 0.454902 
0.411765 0.290196 0.258824 0.462745 0.329412 0.301961 
0.607843 0.439216 0.4 0.701961 0.529412 0.47451 
0.694118 0.498039 0.454902 0.694118 0.462745 0.439216 
0.658824 0.407843 0.443137 0.67451 0.439216 0.462745 
0.65098 0.356863 0.384314 0.701961 0.521569 0.498039 
0.713725 0.509804 0.47451 0.584314 0.439216 0.356863 
0.627451 0.509804 0.466667 0.615686 0.486275 0.45098 
0.627451 0.498039 0.443137 0.639216 0.427451 0.396078 
0.627451 0.443137 0.396078 0.607843 0.431373 0.388235 
0.580392 0.407843 0.364706 0.639216 0.462745 0.411765 
0.552941 0.443137 0.407843 0.615686 0.454902 0.4 
0.635294 0.505882 0.498039 0.603922 0.47451 0.462745 
0.803922 0.572549 0.505882 0.823529 0.584314 0.541176 
0.866667 0.615686 0.560784 0.858824 0.65098 0.580392 
0.858824 0.627451 0.572549 0.584314 0.486275 0.482353 
0.537255 0.443137 0.419608 0.580392 0.462745 0.439216 
0.509804 0.352941 0.309804 0.607843 0.47451 0.439216 
0.815686 0.607843 0.592157 0.843137 0.627451 0.619608 
0.823529 0.592157 0.572549 0.8 0.627451 0.584314 
0.760784 0.592157 0.541176 0.74902 0.552941 0.541176 
0.592157 0.372549 0.321569 0.584314 0.388235 0.352941 
0.592157 0.384314 0.341176 0.603922 0.396078 0.345098 
0.639216 0.466667 0.4 0.552941 0.454902 0.411765 
0.619608 0.439216 0.388235 0.603922 0.462745 0.431373 
0.635294 0.47451 0.431373 0.615686 0.4 0.309804 
0.603922 0.396078 0.301961 0.607843 0.364706 0.313725 
0.552941 0.419608 0.396078 0.596078 0.466667 0.439216 
0.541176 0.431373 0.384314 0.509804 0.313725 0.258824 
0.552941 0.321569 0.254902 0.537255 0.313725 0.247059 
0.564706 0.407843 0.364706 0.54902 0.407843 0.364706 
0.843137 0.603922 0.54902 0.847059 0.615686 0.580392 
0.854902 0.65098 0.564706 0.878431 0.65098 0.615686 
0.878431 0.658824 0.603922 0.619608 0.494118 0.47451 
0.607843 0.454902 0.454902 0.67451 0.486275 0.419608 
0.635294 0.454902 0.427451 0.584314 0.407843 0.4 
0.607843 0.407843 0.427451 0.615686 0.419608 0.384314 
0.780392 0.537255 0.529412 0.788235 0.572549 0.537255 
0.8 0.572549 0.529412 0.768627 0.560784 0.505882 
0.760784 0.552941 0.552941 0.756863 0.54902 0.509804 
0.694118 0.505882 0.494118 0.694118 0.537255 0.462745 
0.67451 0.47451 0.439216 0.701961 0.541176 0.498039 
0.701961 0.529412 0.482353 0.670588 0.509804 0.486275 
0.607843 0.47451 0.443137 0.466667 0.309804 0.247059 
0.486275 0.341176 0.27451 0.482353 0.321569 0.258824 
0.8 0.572549 0.509804 0.717647 0.54902 0.47451 
0.560784 0.419608 0.388235 0.639216 0.486275 0.47451 
0.560784 0.431373 0.396078 0.521569 0.4 0.376471 
0.803922 0.580392 0.560784 0.8 0.615686 0.572549 
0.803922 0.584314 0.552941 0.639216 0.462745 0.454902 
0.619608 0.427451 0.411765 0.529412 0.376471 0.376471 
0.537255 0.388235 0.345098 0.541176 0.372549 0.321569 
0.705882 0.517647 0.45098 0.596078 0.47451 0.45098 
0.607843 0.454902 0.431373 0.584314 0.4 0.372549 
0.596078 0.419608 0.376471 0.580392 0.388235 0.345098 
0.54902 0.388235 0.384314 0.592157 0.443137 0.411765 
0.580392 0.411765 0.388235 0.607843 0.427451 0.364706 
0.592157 0.411765 0.356863 0.509804 0.321569 0.290196 
0.521569 0.356863 0.313725 0.517647 0.352941 0.278431 
0.560784 0.419608 0.388235 0.552941 0.431373 0.372549 
0.560784 0.4 0.384314 0.701961 0.517647 0.47451 
0.541176 0.411765 0.372549 0.537255 0.419608 0.388235 
0.541176 0.407843 0.384314 0.580392 0.419608 0.384314 
0.580392 0.431373 0.4 0.835294 0.584314 0.521569 
0.827451 0.596078 0.517647 0.443137 0.313725 0.298039 
0.505882 0.352941 0.313725 0.427451 0.286275 0.243137 
0.596078 0.431373 0.376471 0.603922 0.431373 0.372549 
0.690196 0.541176 0.454902 0.701961 0.521569 0.47451 
0.54902 0.396078 0.345098 0.541176 0.407843 0.364706 
0.54902 0.407843 0.345098 0.356863 0.219608 0.2 
0.364706 0.219608 0.156863 0.352941 0.188235 0.180392 
0.682353 0.486275 0.454902 0.694118 0.509804 0.486275 
0.572549 0.4 0.329412 0.815686 0.584314 0.603922 
0.792157 0.572549 0.564706 0.658824 0.494118 0.419608 
0.658824 0.482353 0.431373 0.682353 0.505882 0.466667 
0.690196 0.505882 0.439216 0.647059 0.47451 0.411765 