# vtk DataFile Version 4.2
vtk output
ASCII
DATASET POLYDATA
POINTS 12508 float
34.2188 36.5215 73.8895 33.6303 35.8064 74.6504 34.4232 35.3491 73.6962 
49.7089 -20.8309 85.1141 50.4167 -21.5459 84.5321 50.7235 -20.5084 84.485 
-51.7314 -6.27112 88.7341 -51.6208 -7.4547 88.6098 -51.0071 -6.87688 89.2627 
31.026 -49.7123 105.839 30.1733 -49.5277 106.734 30.2818 -50.5785 106.309 
30.4862 -32.8663 108.761 30.4678 -33.6562 107.918 31.4594 -32.9194 107.876 
31.1421 -47.6713 106.27 30.2926 -48.3522 106.97 30.9636 -48.7586 106.215 
-31.2873 -37.6855 104.187 -30.5259 -38.6954 104.331 -30.4919 -37.6681 104.994 
23.2963 43.4756 84.1729 23.9703 43.9148 83.3613 23.3234 44.7908 83.8515 
17.1593 -34.2248 113.772 17.2769 -33.0137 113.938 16.156 -33.6859 113.953 
-59.1567 16.2907 82.08 -60.0911 15.6801 81.5357 -59.1348 15.2276 82.2065 
-32.2942 -26.4171 106.916 -33.1726 -26.3748 106.074 -32.5594 -27.4973 106.511 
30.1438 -47.2936 107.22 29.3456 -46.5133 107.77 29.3503 -47.7902 107.815 
-47.5802 -4.94385 92.6402 -48.4774 -5.56371 91.8438 -47.6128 -6.26404 92.529 
33.1538 -19.3692 101.729 34.2774 -18.7546 101.965 33.489 -18.3526 102.89 
29.6417 -16.8212 107.733 28.7797 -16.1636 108.202 28.4518 -17.3701 107.775 
-24.4352 30.7689 99.7506 -24.9831 29.5559 99.8674 -23.9306 30.0164 100.356 
28.9025 -90.1354 42.1178 29.0406 -89.389 41.1869 28.1234 -89.4919 42.1513 
-18.2712 -77.737 71.9707 -19.2174 -76.767 72.1267 -19.3862 -77.8543 71.401 
-23.4676 -29.7072 112.52 -24.5098 -28.9595 112.091 -24.5644 -30.1428 111.864 
-38.2785 36.9453 91.1678 -37.2432 36.3111 91.8135 -37.2475 37.6596 91.5577 
33.1231 31.3142 74.7839 32.9894 30.1094 74.6588 33.8495 30.5326 73.8453 
47.9228 -35.6643 81.8454 47.6303 -34.7887 82.7865 47.0646 -35.8484 82.9365 
32.289 -28.6934 108.496 32.3662 -27.6249 108.215 31.3828 -27.8197 108.99 
-15.2686 -10.136 117.605 -16.3354 -9.54253 117.02 -16.3731 -10.8363 117.2 
-33.201 -15.4376 105.204 -32.5073 -14.669 105.714 -33.3521 -14.1733 104.801 
28.5114 -54.903 105.475 29.5404 -55.0548 104.439 29.4473 -54.0278 105.358 
-17.4952 -14.2994 116.95 -16.4586 -14.9379 117.409 -16.4223 -13.5752 117.431 
-60.0999 14.4363 81.6358 -53.4376 10.1834 87.0234 -54.4088 10.5511 86.1997 
-54.3302 9.40149 86.319 29.3615 -36.865 107.273 29.3447 -38.0179 107.018 
30.3591 -37.3391 106.526 25.3711 -39.2284 109.757 26.4058 -40.046 109.237 
26.4291 -38.6783 109.222 21.2791 -31.9276 113.618 22.5326 -31.2766 113.75 
21.399 -30.6668 114.212 2.09011 -13.6653 114.742 1.57335 -12.8182 115.787 
1.34152 -13.8501 115.723 36.3708 25.2605 70.1156 35.9734 26.3354 70.6756 
35.2673 25.2662 70.969 -30.7024 -36.491 105.404 -29.6327 -37.3313 105.915 
-29.6022 -36.1576 106.433 -19.5254 -10.5824 115.422 -20.5745 -11.2306 114.81 
-19.5857 -11.7407 115.559 -35.1783 -59.1112 77.9835 -35.2124 -59.9673 77.0701 
-34.2213 -60.1242 77.9792 -20.6659 -12.5112 114.96 -21.582 -11.9801 114.225 
-21.7 -13.169 114.301 -17.4629 -11.5915 116.738 -18.4763 -11.109 116.137 
-18.5305 -12.3199 116.255 -22.4011 -30.4561 112.901 -23.4895 -30.9782 112.259 
-64.0303 -12.9033 72.0741 -63.1984 -12.7553 73.1879 -63.9696 -11.7331 72.8255 
31.7204 -48.7228 105.392 -31.4916 -28.3837 107.353 -30.5135 -27.7637 108.21 
-31.4449 -27.1264 107.529 -26.3014 -24.8684 111.431 -25.4773 -25.5335 111.938 
-25.3216 -24.2424 112.114 -22.4065 -31.7792 112.58 -20.5676 -10.0301 114.603 
-21.5564 -10.6618 114.024 -2.79703 -16.9501 118.2 -3.80291 -16.4989 118.683 
-3.99687 -17.659 118.534 -22.3993 -29.1347 113.153 -24.2891 -23.6255 112.81 
-24.4167 -24.9193 112.587 -56.9651 -24.8448 76.6143 -56.8915 -23.6464 77.3806 
-57.5688 -23.6738 76.4311 30.7882 -64.9733 73.6575 31.6273 -63.9797 74.4339 
30.5929 -64.7803 75.1019 28.4259 -45.7644 108.357 29.3831 -45.1263 107.621 
28.4745 -44.3732 108.282 50.0428 -27.4144 83.5546 50.1574 -26.2846 83.7517 
49.2581 -26.9326 84.4359 -23.5032 -32.3077 111.928 -25.6209 -31.9304 110.778 
-25.6219 -30.5936 111.132 -26.6427 -31.0735 110.355 -23.5189 -33.6412 111.569 
-22.4379 -33.1315 112.264 -23.4631 -28.3816 112.744 -24.5725 -38.3925 109.17 
-24.6154 -39.6574 108.527 -23.5541 -39.3401 109.309 -25.5917 -33.3067 110.403 
-24.5656 -34.1363 110.811 -24.5602 -32.814 111.184 -41.5218 30.2046 90.6213 
-41.454 28.824 90.9762 -40.4576 29.5899 91.3348 -22.4461 -34.4685 111.879 
26.1593 -29.9049 113.045 27.2181 -29.3151 112.466 26.1836 -28.4261 112.803 
-60.041 13.2206 81.7946 -59.2593 12.6943 82.3642 -59.1528 13.9045 82.3611 
21.0428 -36.1178 112.26 20.9917 -37.473 112.009 22.1138 -36.766 111.617 
31.1933 -42.6806 105.773 31.3463 -41.5935 105.406 30.4159 -41.7573 106.38 
-32.8641 39.5655 93.5631 -33.9492 40.0876 92.919 -33.9517 38.7248 93.2331 
20.4616 -4.92328 106.158 20.6544 -3.63722 105.534 19.3375 -4.079 105.943 
-31.976 -18.162 106.818 -31.1197 -17.4073 107.456 -31.9952 -16.9396 106.586 
-25.5277 -26.9513 111.765 -26.3866 -26.3364 111.29 -43.7388 38.8552 87.7192 
-44.7601 39.4261 86.9612 -44.769 38.0592 87.2701 -29.6505 -34.8633 106.968 
-28.6383 -35.817 107.35 -28.6518 -34.5614 107.868 30.3075 -38.6913 106.318 
3.13424 -24.7901 112.098 2.1605 -24.1592 112.776 2.11664 -25.3564 112.825 
49.6481 -22.2171 84.8935 48.6887 -22.9786 85.2922 49.6575 -23.5825 84.6431 
50.5914 -22.7731 84.1796 -21.3045 -29.8823 113.511 29.4149 -43.7525 107.469 
-51.0817 24.0652 86.7706 -49.9956 23.4475 87.526 -50.0848 24.8691 87.2705 
-18.6947 -16.2955 116.386 -19.7263 -15.6317 115.801 -19.7528 -16.9693 115.79 
-29.6111 -30.0335 108.521 -29.5562 -28.5431 108.836 -30.5664 -29.2313 107.978 
-28.5981 -29.3503 109.371 -20.1924 -30.6426 113.828 -20.2043 -29.2969 114.104 
31.4984 -26.612 108.377 -34.1182 -26.005 105.153 -35.1292 -25.7881 104.216 
-34.6866 -26.8696 104.536 -19.7032 -14.3028 115.745 -20.711 -13.7588 115.048 
-20.7447 -14.9872 115.096 -58.2414 13.3745 83.0488 -18.6545 -14.942 116.38 
-21.097 -23.1194 114.616 -21.1122 -24.4735 114.437 -20.024 -23.8749 115.038 
-28.6289 -37.0782 106.829 -45.7585 25.4333 89.4081 -45.7882 26.8104 89.0874 
-46.7524 25.9309 88.7863 -21.128 -25.8329 114.218 -22.2377 -26.4405 113.601 
-21.2451 -27.1726 113.96 -21.2929 -31.2221 113.22 -22.3669 -27.7703 113.358 
-50.6042 11.1912 89.1481 -49.6221 10.6824 90.0166 -49.727 12.0438 89.6908 
-32.5092 -32.0904 105.595 -32.6642 -33.0522 105.097 -31.6896 -32.9587 106.044 
-17.8161 -22.6376 116.23 -16.7101 -23.3843 116.558 -16.6804 -21.9994 116.814 
-24.4837 -26.259 112.423 -49.8971 19.2567 88.213 -48.8728 18.6715 88.9525 
-48.8646 20.0574 88.6918 -22.1784 -23.7382 114.002 -22.1868 -25.0913 113.817 
-27.6313 -30.2166 109.882 -26.6138 -29.7296 110.672 -61.1927 8.5969 80.6905 
-60.3282 7.82556 81.3701 -60.1877 9.2092 81.4364 -27.6662 -35.526 108.252 
-21.2946 -28.528 113.733 -20.1665 -27.9359 114.314 -27.6533 -34.2392 108.765 
-28.6607 -33.2939 108.336 -18.9284 -23.2693 115.632 -19.9897 -22.5129 115.23 
-18.9382 -24.6278 115.426 -55.3804 12.5039 85.272 -54.4426 11.8828 86.0601 
-54.5204 13.1321 85.8334 -33.7876 -27.5333 105.31 -34.7312 -28.1022 104.398 
-33.8856 -29.0153 105.002 -33.3506 -31.8899 104.808 -26.6398 -32.4414 109.978 
-27.6524 -32.9248 109.187 -26.6387 -33.7961 109.612 -20.0264 -25.2318 114.821 
32.0793 10.1597 102.428 31.8111 9.81443 103.712 32.69 9.10162 103.388 
-28.2506 -19.2079 110.029 -29.2382 -19.9911 109.386 -28.3028 -20.5836 110.129 
-34.8022 -29.4382 104.081 -20.0444 -26.589 114.568 -59.3267 8.54842 82.1535 
-33.042 -28.5638 105.901 -33.0508 -29.7474 105.602 -17.4732 -12.9388 116.879 
-18.5544 -13.6572 116.36 19.8296 -36.7134 112.505 19.9487 -35.571 112.866 
18.7847 -35.7813 113.093 -21.0495 -21.7568 114.825 -27.6719 -40.4586 105.787 
-26.6937 -40.1831 106.74 -27.6923 -39.2522 106.466 -58.6852 6.21142 82.6152 
-57.8631 5.32846 83.2979 -57.846 6.69936 83.3015 -25.3569 26.4886 100.469 
-26.4906 27.172 100.044 -26.4761 25.7368 100.098 -25.5924 -35.9668 109.559 
-24.5595 -35.4479 110.386 -25.6 -34.645 110.017 -24.5506 -36.8472 109.873 
-18.9219 -25.9892 115.181 -48.7071 -59.5172 63.3539 -49.5884 -59.7639 62.3243 
-48.74 -60.8319 62.7022 22.3187 -32.6004 113.22 23.5499 -31.943 113.216 
-26.6339 -37.766 108.056 -25.6152 -37.4192 108.985 -26.6201 -36.5004 108.649 
-19.7851 -18.3062 115.734 -18.7363 -19.0525 116.264 -18.6964 -17.6738 116.331 
-18.7687 -20.4455 116.128 -17.6584 -19.8051 116.702 -19.8236 -19.6869 115.672 
-27.2626 -24.1223 110.824 -26.3011 -23.5057 111.529 -19.87 -21.0901 115.493 
-27.8538 -9.21046 108.689 -26.8604 -8.37428 109.294 -27.7783 -7.92417 108.414 
-25.61 -29.3218 111.402 -45.8168 28.1946 88.7874 -46.7789 27.3422 88.4985 
-28.5435 -27.9727 109.608 -31.1644 -20.1306 107.804 -31.1296 -21.5337 107.937 
-30.2261 -20.7544 108.646 38.48 -44.4651 93.2267 38.2651 -45.6226 93.7794 
38.6133 -45.6918 92.4632 -22.5473 -11.4358 113.439 -31.6844 -34.2189 105.538 
-30.7193 -33.8834 106.517 51.2756 -21.8851 83.8427 -30.7556 -32.542 106.968 
-29.7232 -33.4773 107.416 -29.6651 -31.9828 107.957 -52.4453 5.35257 88.1299 
-53.3557 4.61505 87.3475 -52.4811 3.95776 88.2237 -23.2516 -24.3597 113.328 
-23.2261 -23.0001 113.487 -33.6243 -33.0384 104.108 -30.4962 -26.4632 108.263 
-27.2911 -22.725 110.861 -28.2574 -23.4092 110.147 -32.0875 -23.7188 107.202 
-31.1522 -22.9917 107.966 -32.0764 -22.3605 107.189 -31.5164 -25.8297 107.57 
-30.5647 -25.0589 108.391 -31.4883 -24.4611 107.693 -32.098 -19.4701 106.928 
-31.1632 -18.7484 107.626 -44.5408 -21.1115 93.2848 -43.6044 -21.0756 94.3409 
-44.1532 -19.9172 93.8628 -20.9234 -20.3342 115.059 -30.2762 -23.6363 108.696 
-30.1849 -22.2178 108.721 -45.6711 -7.9298 93.8416 -45.6613 -9.32054 93.6376 
-44.6735 -8.72917 94.4471 -32.4973 -11.9483 105.168 -32.521 -10.6622 104.877 
-33.4257 -11.442 104.236 -33.4212 -12.8186 104.532 30.2249 -36.0318 106.989 
31.2572 -36.3431 105.887 31.1331 -35.1725 106.291 -40.3218 1.83656 97.7256 
-39.2804 1.23159 98.4261 -39.291 2.60371 98.2881 -40.3336 3.2214 97.6205 
-32.0586 -20.9201 107.099 -22.5785 -12.7546 113.63 -24.4958 -27.6303 112.266 
-23.4161 -27.0159 112.927 -56.0894 8.08613 84.8745 -55.1882 7.38722 85.6992 
[...]
POINT_DATA 12508
SCALARS Gauss_Curvature double
LOOKUP_TABLE default
-0.00015998375027 0.00097320481054 -0.00023523631164 -0.00037084457309 0.0013211500259 -0.0030970729041 0.0010642246948 -0.0016211535144 0.00011936581871 
0.00053667497334 0.00041900642897 0.0036885728838 0.0019387352991 0.0035971702598 0.0037116998172 0.014080725389 0.008214088579 0.0046037074014 
0.0002354115993 -0.00019311936679 0.0029707796256 0.00027281899875 0.00039602828894 0.00098821006018 -0.0031614572882 -0.0070711319965 -0.00090629743988 
3.782558943 9.6203001916 0.00082022061964 0.0057727392222 -0.0012741678264 -0.00031169407013 0.017200510324 -0.00087417586189 0.013274596789 
-0.00025678322059 -0.0020359288519 -0.0016279847794 0.0012285679351 0.0025400750179 -0.016466106891 0.12172284667 -0.0095386188684 0.0018728356297 
-0.0005644273652 -0.0014906691987 -0.017635098965 0.071280107745 -0.035288030998 -0.0032286026945 -0.0016670057892 -0.0015192237723 -0.00098092552759 
0.00036516373949 0.00058254355145 0.0016142252617 0.00061223991252 -0.00057871874606 0.00075670275397 -0.00038505497866 -0.00044910031554 -0.00013596229241 
-0.00032012001239 -0.0012886108135 0.00049406334834 0.0098773633693 0.024891943563 0.0014163227909 0.0038018163832 0.0036043552079 0.001010197002 
-0.0003011317473 0.00012223314852 0.00013226180723 0.0018969207508 0.0034481237242 0.0031063830401 0.001067769613 0.00016562920316 0.0017037262418 
2.2962319361 0.00029905970127 0.00045003799023 -0.00054370045543 -0.0007292400165 0.0017639782197 -0.007542401282 0.0030144729834 -0.0030246425363 
-0.0081068905249 0.0023239854914 0.0040758078838 0.012029075308 -0.00050948975375 0.0019770476856 0.009868298983 -0.051549492424 -0.0028897721739 
-0.0065762096488 0.00052806939229 0.0010943374222 -4.1124541112e-05 0.0016916859834 2.1917894068e-05 0.00067279110979 -0.00020548458228 -0.0001530735523 
-0.00075576120947 0.0014992624528 -4.2684327341e-06 -0.00032501628879 0.00019233068017 0.0010518758606 0.00076403565364 0.00080629813734 0.0010409712521 
7.5822893184 -0.0046117380562 1.7983077835 0.0078730650624 0.0017667238938 0.0010262435461 -0.00085824195134 -0.00014009462315 0.0011919352082 
-0.0010297035563 -0.00018586837089 0.00070543538796 0.00047971906552 0.0025900302838 0.0040000444987 -0.001118652033 0.0011262986666 0.00046514324619 
-0.00039707982149 -0.043458818674 -0.001519029457 0.00058780456484 0.00026918563875 0.00043826696501 0.00053536708915 -0.0025652207142 -0.0009017414047 
0.0012911438924 0.0028805007358 0.0024038531676 0.0032338413213 0.00010878182571 0.00015568882829 0.00091669256306 0.00081527510937 0.0014249768531 
0.0013628268288 0.0011485659457 0.00034703064826 0.00093595875561 4.9307619242e-05 -5.2305973715e-05 0.0006196064509 -6.4338005123e-05 -0.00029637162103 
-0.00020351740588 3.5739038209e-05 0.00065943834951 0.01937750684 0.012217370101 0.0087804562249 0.0082093254469 0.0014892456301 -0.0015902036286 
-0.0064949576565 -0.0063134696569 0.0028681132227 0.0095046367932 -0.00022210382271 0.002431041362 -0.00025786683724 8.1304753539e-05 -0.00022700648377 
3.8476569359e-05 -0.012967183858 0.0056798242184 4.4844163022e-05 4.5322268853e-05 -0.00034585041739 0.00066029055887 0.00052942740947 -0.00034129771789 
3.7783713414 -0.00043804742341 4.2309469322e-05 -9.1815296054e-05 -3.8215109963e-05 -0.0097057610304 0.022833773562 0.0027503311198 0.0060492539624 
-0.00039882991276 -0.0016143069787 -0.0027897358878 0.0017466395795 0.0002564418158 0.00091255624025 -0.00043099577802 -0.00026998007431 0.0026933332144 
0.0021135684058 0.0010991431902 0.00022843955381 0.0011046906813 0.0012741736558 0.0022075925198 -0.00038926605659 -1.4229334448e-05 0.00061648984731 
0.039756608829 -0.00048477666886 -3.9889211572e-05 -0.00022288942518 0.0009577115692 0.00045428067631 -9.4559132517e-05 -0.0013027078877 0.00070971411734 
-0.00029353028483 0.0002310931386 0.00012040158582 0.00020452567062 3.2042547658e-05 0.00024206805052 -0.00025284806419 -0.00026547024517 -0.00023767896929 
-7.8319318311e-05 -6.0017647184e-05 -9.7448467502e-05 -0.00010940332673 -8.5790059802e-07 0.00027612986462 0.0025846187773 0.0012892420008 0.0014720298474 
-0.00044068406277 -0.00042276834646 0.00037932620164 -3.0463586711e-05 -0.0016656306956 -0.00094562351567 0.00018335695934 0.00068430767798 -9.2409878003e-06 
0.00091501490141 0.00048520335987 -0.0017807615258 -0.00038089833697 -0.00036420440009 0.00027371777307 -0.00010958917351 -3.1057123942e-05 0.00089913835017 
0.0011048576972 -2.7924731494e-05 -4.395485588e-05 0.00020957598102 -0.0019945543362 -0.0018161114157 -0.0014086615324 -0.00089538117962 0.0016281775138 
-0.0012463291084 0.00042467859101 -0.00037228985201 0.0016327966537 0.00073460798212 -7.4361191664e-05 0.036223488045 0.066729131875 0.030982973441 
-0.00019091204388 0.0013106748749 0.00034222729853 0.0024979893834 8.5643135738e-05 -0.00079909379564 0.00090879231925 0.00064125325564 0.00089386978414 
0.00061263135749 0.0013527583752 0.007921142836 -0.014750580917 0.00024741500827 -0.0005201545744 0.00075831771946 3.0581336307e-05 -0.00013400645939 
-0.00099264239433 4.0802000148e-05 0.0028677993677 -0.010317159114 -0.0039964279707 0.00047469190028 0.00080114167522 0.00060665082982 0.0015323449311 
-0.00014230433007 -0.00086264308727 -0.00026624744127 -0.00057807696597 -0.0027579092429 0.001669711058 0.00037671632487 0.0037828974928 0.00074682931575 
-0.00049077034016 0.00095488020952 -0.00012909755783 0.0011267389679 0.00066062530437 0.00015948294952 8.6734735849e-05 -0.00013103486484 -0.00015939648362 
0.00083810908174 -5.7536596249e-05 -0.00016622088919 0.0015850468204 -0.00084124572172 0.00051906367543 -0.00065125152556 0.00033441364305 6.1650502942e-05 
0.0003863402046 -0.00031462005072 0.0029955412159 -0.0010315938096 0.00012799716516 0.00044854270536 0.0010480430697 0.010037576608 0.0013783951354 
-0.00044037748209 -0.00032009318603 -0.00035284945177 -0.00021859629748 -0.00013273941617 -1.7336525436e-05 0.00014701116353 0.0010263985187 -0.00047464541199 
-9.4645860857e-06 5.0504399693e-05 0.00081382313418 3.4992742517e-05 0.0010127831727 -0.00097515793996 0.0016209051414 0.0007897433765 0.0013864675435 
6.3915512483e-05 -0.00061160721296 -0.00037896721176 -0.00056938606768 0.0013592022427 0.0022079484773 -0.00029222290483 0.00024934819486 -0.0019092122156 
-0.0011769971415 -3.1702240315e-05 0.00058144523881 -0.00053709241772 0.00070663511269 0.0090476098424 -0.0049304766222 -0.024099554347 -0.00037027906285 
-0.00058494942975 -0.00041571586037 8.808321268e-05 0.00026290135145 0.00044570447652 8.9315039637e-05 -0.00013681378012 -0.0012076041184 0.00069596917883 
0.00033187690969 0.00035884879846 0.00043990756782 0.0042240883792 -0.00030683421467 -0.000356581258 0.00079794376325 -5.1696741109e-06 -0.00012754016995 
0.00030774674414 -0.00082325216515 0.0020034445116 0.0020742645478 0.0030769540963 0.0019916513699 0.0018429664683 -0.0010408349253 0.0001489058726 
0.00016300963507 6.0418131701e-05 0.00095264978191 -0.00084551242258 -0.00046123301997 -0.0005099012422 -2.184007201e-05 0.0024481750962 0.0084347774612 
0.0044284134413 0.0007408826385 -2.3339778038e-05 -0.00042400222534 -4.0397121294e-05 -9.7480610556e-05 -0.0020469227035 -0.0019513541192 -0.0037772571481 
-0.001882331943 0.00098840865372 -0.00014774095005 0.0014516909715 0.0022931109309 0.0019232779455 0.00016921986396 -0.00035763009692 -9.0259696942e-05 
2.3036384184e-05 -0.039655438848 -0.032954061073 -0.038943051839 -0.0010652581311 -0.00093248088159 -0.0016045978951 -0.0001303723861 -1.1906210906e-05 
0.00031237409374 -2.2487196134e-05 0.00072074424532 -0.0010538120328 0.00083071626419 0.00098928975618 0.00078140444959 0.00033725148925 0.00023984199622 
0.00018378989707 -4.8236031428e-05 0.0019554448525 9.8277604776e-05 -0.0012135518671 -0.00010062531595 0.00020404481166 -0.00035860535861 -0.00013278244796 
-4.8919537506e-05 0.00048041422329 -0.00012769012741 0.00041642972563 9.8451469548e-05 -0.00023752148526 0.00020784312985 -2.8303520101e-05 0.00071379776175 
-0.00015936365036 0.00086627012078 0.0017957811553 0.00075068128626 -0.0011367421582 1.7971412306e-05 -0.00021984213254 0.0014027068018 9.3620799921e-05 
0.00010907263745 0.00056774572195 0.0024283333738 -0.0065269180883 -0.001456655921 3.875069819 1.3744206299e-05 -0.00018259177045 7.2973542997e-05 
0.00023511106303 0.0019964280698 0.0022158197839 -9.6167619958e-05 -1.1930654256e-05 -4.9554298758e-05 -8.9525428237e-05 -0.0003523198445 -0.00025886248462 
-0.00036104508159 3.6804846909 4.2407375943 2.6164060348e-05 -0.00080836114316 0.0009638645553 0.0019199671263 0.0012627549848 0.00060459822546 
0.00074857818307 -0.0002579829012 0.0011241915992 0.0010003084173 0.00074037257016 -0.0031528674601 0.00088320293851 0.0016983832019 0.00017463945363 
0.00051169183304 -0.0011731421277 -0.00023255334937 -0.00024420829742 0.00045701136995 -1.8188496687e-05 1.7753806393e-05 -7.2198123312e-05 7.1104819658e-05 
-0.00034694245809 -0.00046753531907 -0.0010188022112 0.036035674943 0.0075095712636 0.0078305338657 -0.00019089100612 0.00016938622185 0.00086174033884 
-0.00023191946252 -1.7946964871e-05 -0.00015501136004 -0.00012113345199 -0.00013195689523 2.9945089033e-06 -0.00013518505018 0.00016961380722 -7.4156345449e-05 
0.0003494933905 0.0036886797217 -0.0001566790101 0.0037269964999 0.00041152244618 -0.00035770462525 -0.00071826664707 -0.0015270656888 -0.0014416559016 
0.00058151239802 -0.00058592689878 -5.0130072316e-05 -2.6882376296e-05 0.00047965533921 0.00013835531067 0.0011726323879 -0.00014780379314 7.298566226e-05 
0.00033774478595 1.7575899256e-06 0.0012969370098 0.00053524831441 0.00038663221303 0.00062944368004 0.00011213186342 0.0037237936269 0.00069283742346 
-7.6897882453e-05 4.6506935306e-05 -5.6800216669e-05 0.00026489656727 -0.0010405805483 -0.00016549899963 -0.0029935647826 -0.0019409939264 -0.00072946817538 
0.0014385735723 -0.00058790964795 9.6863938792e-05 0.00015683569959 7.0595214585e-05 0.00061663518609 0.00096583569898 0.00017426316319 -0.00032920679221 
1.7321139252e-05 0.00083503591221 -0.00076786354464 0.00047455497487 0.0006981017567 0.00084906219886 0.0010750475754 0.0013654038105 -0.00060174716653 
0.00033177318984 0.00068168986919 -0.00011637697314 0.00067648770936 0.00022117367618 0.00014458480352 5.2043628175e-05 -0.00058036518028 -0.010769231656 
-0.018288010976 -4.339821958e-05 0.00020023696265 -0.0001520666042 0.00021672422921 0.00013501649633 -1.6344634507e-05 -0.00043778999452 -0.0002865465673 
-0.00023080406204 9.399556753e-05 2.6861071058e-05 3.2329199269e-05 6.4673650635 3.3640219359 -0.00066876832196 -0.00073405640286 -3.1817717099e-05 
-0.00040724998399 -0.00044544604532 8.8730890388e-05 -9.1744853349e-05 -0.00019595760434 -0.00019918811506 -0.00041859595104 -6.647409432e-05 -0.00019796598117 
-0.00070230307804 0.00042310387741 0.00030558291727 -0.00022726589348 7.4958781737 3.3551290936 -0.00049097765412 0.0033446711249 0.00014954051965 
-0.00077296637866 0.0011181445592 0.0002308077951 0.00023343118366 1.5894730451e-05 0.0012769651326 7.4566879953e-05 -0.00079221975614 -0.0017041942943 
-0.00051462261827 0.00032254188671 -0.00037501752965 9.1586154285e-05 -0.00014269681485 0.0002961138182 -0.00016856148265 0.0015084756384 0.0015002005268 
0.0015930958158 -0.0022677995762 0.00041186481595 0.00026884694821 0.00094796971163 0.0001972925991 -0.00094470370068 -7.1212919127e-05 0.00031534555229 
2.8392979302e-05 -0.00032315909029 3.8036072835e-05 -0.0006094447107 -0.00048413376377 -0.00094076873773 0.0024747755722 -0.00089128479133 -0.000800928897 
0.00085425377675 -1.8065289546e-05 0.00032882738253 0.00025877617067 0.0015819319846 0.00076086648856 0.00095751000324 3.6858453674 6.9935970898 
-0.00096058270983 -0.00014552041564 -0.0019113502137 0.0008621134927 0.0024362332207 0.0075954667797 2.1990442432 -0.00027996709605 -0.00063746042978 
-0.00050490286015 0.00023918661199 -0.00013500733488 -3.0844694256e-05 0.00041087339599 0.00023113660574 -0.00047875400031 0.0011840500643 -0.00066035450577 
-9.5034663162e-05 0.00045967136106 -0.0002842306367 -0.0001495279343 -0.0007766745967 -0.0011307757352 0.00050511294339 0.00010959903531 -7.4334587599e-05 
0.00013667859537 -0.00032346721658 0.00053385726741 -0.00039162782679 0.0011324382141 0.00096244893162 -0.0046072489802 0.00066353128439 -0.00019134306268 
-0.00018171919185 -0.00026056918497 -0.00022592152204 0.0056950139388 -0.003111839441 0.00092136677704 -0.0041048941217 -0.0018101365034 0.0027657428048 
-0.0012767445202 -0.0035868274961 -0.00091170191133 -6.1118574723e-05 -0.000275228644 0.00037096415024 9.2682712675e-05 0.0025357526027 0.00017812333576 
0.00022266369919 0.00115692853 0.00027121688437 0.00087753258144 0.00051638547373 -0.0018713862385 -0.039678664673 -0.00037564833322 -0.00046326588398 
0.00064262495999 3.8286284696 -0.00074669473384 -0.0021760828988 -0.0012756122919 1.0488120462e-05 0.00052145293025 -0.0019757610239 0.0028738744721 
-0.0021201865743 0.0027344204975 0.00021296270944 0.0001113336015 0.0007160156958 -7.6808963938e-05 -0.001022188912 -0.0012452782846 -0.0013515960423 
-0.0016531718894 -0.0008627382012 -1.9737498561e-05 -7.0112135705e-05 -0.00036260596844 -0.0031072050835 -0.0051795335262 -0.0026215120151 0.0017450163758 
-0.0017064841386 0.0013147648218 -0.00019799104768 -0.0019227184562 -0.0028749578581 -0.0049417187954 8.0062177337e-07 -0.00094827529395 -0.00058944184468 
0.0007116306965 0.00080508028023 0.00046828884132 0.0026959457112 0.0040479232853 0.014119881196 -5.5889490531e-05 -0.0002919464283 4.2990191181e-05 
-0.00053697571801 -0.0019419389274 -0.0023213984661 -0.00023948247991 0.0020349629318 0.0016079516338 -0.00015244099319 -0.00025745032511 -0.00020352947052 
-0.00013260936938 0.00063310836532 0.0001326498548 0.00037941035743 -0.00050005056609 0.00073795219153 0.00018105514533 0.00087672892593 0.00043393290195 
-1.3729882623e-05 0.0047423363859 0.00133100193 0.00089069101307 -0.00027326267942 -0.00077481258076 0.00025247542385 -0.0012320912179 -0.00018620276472 
0.00047921977413 0.00021324435961 -3.3763403809e-05 -0.00011622482243 -2.2645577461e-05 -0.000234504689 -0.00030777647903 0.00040319303989 -0.00015011158057 
-6.4518503913e-05 -0.00025695354874 -0.00031947897953 -0.00059554169861 0.0005046664824 0.0025514682474 0.00015932625998 -0.00049762149587 0.0006374826392 
0.0023566416674 -0.001376791307 -0.0074954676773 -0.0031166630051 -0.00033955609519 -0.0010362977532 -0.00051296904941 1.7973116379 -0.00040890987334 
-0.0010106490743 0.0013437532864 0.0041295961967 -0.00035957339579 0.00021912870972 -0.00013877982322 -0.0011838829443 -0.0020039031301 0.00039502099678 
0.00075208427474 0.00023364750937 3.7575117952e-05 -0.00053324285527 3.5398465937 0.00010963450412 -4.4147082048e-05 -0.00011795067801 -0.0011759706098 
-0.0028403981403 -0.00017147734757 -0.0025937114333 -0.00045580452992 0.00011365183782 -0.00010090181375 -0.0077045147054 -0.0029366342032 -0.0032132306824 
-9.0656198385e-05 -0.00020841168068 0.00015300476694 0.00023962665403 0.0012380960373 -0.00032834255636 -0.00042524829473 0.00022386875346 0.00057602879263 
0.0063481275545 0.0032006092153 -0.00025444785429 -0.00057783465234 -0.00031402087161 0.0015870488233 0.00077929685647 -0.00018804820663 -5.9032929532e-06 
9.0486041281e-05 -0.048549070654 -0.029559920753 -0.018571413331 1.5485043784e-06 -0.0020991124022 -0.002866203692 0.0022599170048 0.00040301635274 
0.02553604965 -0.00031635344668 0.0019752647011 0.0011405008789 0.0026831467488 0.001354474054 0.00056131633975 0.00059657972723 -6.975940696e-05 
0.0010768846278 -7.4332725399e-05 0.00023818724247 2.6756415141e-05 -0.00031605331289 -0.00014815597365 -0.0014657765745 -0.0002282359183 0.00075588081207 
-9.1885836232e-05 0.0017066403611 0.045874096383 -0.0017377479192 0.3027632451 0.00040950442093 0.00037400835294 0.00021591086318 0.00025601764413 
0.00044923088242 9.9521706952e-06 0.00022104245254 -3.8583067384e-05 -7.1872198917e-05 -0.00094656973977 -0.000403717498 -0.0004731519221 0.00014601611226 
-0.0003751488039 -0.00027968569103 -0.00020652320042 -0.00017300361589 -0.00043514588819 -0.00036982335277 0.0002111758131 0.0027732429602 -0.0008622660515 
0.0031706131391 0.00066986269736 0.00051270603378 -8.9867154132e-05 -0.00025445024762 -0.00030523948708 -0.00027660456158 -0.00138292251 -0.0072784307801 
-4.1679180855e-05 -0.00036968112494 -0.00058768384256 0.00163405137 -9.4992570417e-05 -0.00044814011808 0.0003876501895 6.5393085549e-05 0.0010505820699 
-0.00020932107089 0.00067024124758 0.00035266979614 -0.00056838522256 -0.00064710195618 0.0034275155849 0.009070261549 0.0061224761605 -0.00099720429753 
0.00092843036426 0.0006757352037 -0.00020696050956 -5.8426977867e-05 9.9982792191e-05 0.0033916034717 0.00071700401987 -0.00046219030897 2.0538529654 
-0.0014576987969 -0.011549697763 -0.0047580728112 -0.0085970244137 -0.015325528253 -0.012680717137 0.00061245918705 0.0016981375981 0.00095269658092 
0.0001094087869 0.00078459799693 9.7591124001e-05 0.0024961739471 0.00088409618903 0.0010780864098 -0.00065094857357 3.6501859124 -0.00064175777343 
-2.2861436113e-06 -0.00019598425987 -0.001532633218 -0.0015389257469 -0.00065266667364 -0.00060792502825 -0.00020673364476 2.7227507726e-05 -0.0027623635419 
0.00034202092809 2.1351545554e-05 0.00055260582147 6.3464966781e-05 0.0003961157046 -0.00014787816433 0.00026525479316 0.0049768374906 0.0072940629866 
0.0024432845215 0.00073303624566 0.0004292233715 -0.00010118746449 -7.4425078221e-05 -0.00026594797586 -0.00012506175881 0.0027805910684 0.0036921159858 
0.0019371089765 0.021569263131 -0.00012446024782 0.00023684661066 0.0010945096632 0.00035045449165 0.00048259620173 0.0016724044387 0.0016869539715 
0.0030427045368 0.0073262609488 0.00027711012179 -0.00091018959178 -0.0068891139512 -0.0010054323725 -0.0047188544433 0.00099423165789 -2.0074783125e-05 
0.00022476336028 -0.00031375313181 -0.00021126270536 -0.00027912691091 0.0030089460474 -0.00010080348898 -6.2188258807e-05 -0.00038679914602 0.026518034771 
-0.021168690711 -0.014416771884 0.00042054182115 -0.00014773826538 -0.00091622100793 -0.00018391145008 0.00024240206202 0.0013245006452 0.0010822653852 
0.00052374599065 -0.033312111899 0.0094099507916 0.00050019531437 0.00048408273259 0.00025071600736 -0.00015537794182 0.00010358936283 -5.3827362539e-05 
-0.0004216430734 -0.00023164528346 -0.0001594511754 -0.00038612801895 0.00063737500322 0.00045714272815 -0.00045355800281 -0.00034021469581 -0.0033215919294 
9.0369040898 -0.00030435821003 0.00016243966404 -0.00026665940383 0.0035010514935 0.011135481073 0.0079995758615 0.0096180228952 0.00347727507 
-0.0026677972376 4.253113291e-05 -0.0061472992251 -0.0016517736657 -0.0015059884921 0.0017068585924 0.0022516810693 3.8840123202e-05 -0.010837712835 
-0.00019552109122 9.4659282818e-05 0.001307692957 -0.0015032080059 0.0053595329517 -0.0013010394545 0.00052012966822 -0.00061137511517 -0.001354349477 
-0.00017695351261 5.485204592e-05 -0.00052240440476 -0.00022180673293 -0.00035438001321 -0.00012275245674 0.00080406863631 -0.0002284154687 -0.00014232601391 
-0.00011368471306 -0.0018372535037 0.0030208116282 0.010858121674 0.0026546228778 -1.91382432e-05 4.7683648011e-05 0.00045797485876 0.0065313741433 
0.0060362495467 0.0050504040532 0.00010171583152 0.00071259064748 9.3178511072e-05 0.00074142006223 6.5528830152e-06 0.0001660708735 0.0011202962538 
-0.00014140141285 3.4600647921e-05 -0.00037178109552 0.00068057067778 1.9065513738 -0.00094974010842 -0.00034613318407 0.00045277134684 0.00062374136532 
0.0068132802036 0.00047339347676 -7.4079406999e-05 0.0026955597193 -0.0010311809867 0.00084214081329 -0.00045853327346 -4.2342094895e-05 -3.9853239124e-05 
0.00078291173422 -0.00038504899213 -0.0027593464773 -0.0014912818118 -0.0022295292972 -0.00035862632109 7.0449105538e-05 -0.0014696220255 -7.9875203941e-05 
0.0061010129235 0.000117357722 -0.003330239456 -0.0051549078133 -0.005344721627 -0.00020413087936 -0.00087035132721 0.00036296818077 5.4179318172e-05 