# vtk DataFile Version 4.2
vtk output
ASCII
DATASET POLYDATA
POINTS 17185 float
-73.5282 61.7012 75.7575 -73.2776 60.6508 76.2396 -72.5256 61.3898 76.607 
-65.8274 112.471 53.6404 -66.1336 113.331 52.8094 -67.3299 112.6 53.3349 
-4.13963 63.6466 63.5293 -5.02689 63.7196 64.5035 -4.89449 62.5587 63.9916 
-47.6452 35.3977 93.7597 -47.7434 33.9479 93.7169 -46.5246 34.7264 93.6251 
-69.5069 55.5226 82.1353 -69.4391 56.7978 81.6131 -70.4549 55.9302 81.2276 
-27.3766 59.4391 74.3042 -28.2933 60.2206 74.6413 -28.3206 59.2543 75.3452 
-95.3467 85.242 68.6536 -96.3053 85.3924 67.6006 -96.2143 84.2158 68.2747 
-90.9198 152.27 27.4102 -90.0583 152.186 28.5443 -90.0753 153.276 27.7011 
-66.5582 34.7175 87.6756 -65.5452 35.2285 88.4688 -66.5448 35.9674 87.8016 
-95.364 73.7262 70.3677 -96.3309 74.482 69.6227 -96.2273 73.2164 69.4787 
-88.6165 50.9862 71.817 -87.5924 50.1583 72.3199 -87.6322 51.5402 72.6107 
-89.24 116.124 48.2097 -89.1508 114.925 48.282 -88.1293 115.472 48.8385 
-87.7111 55.778 73.343 -87.5889 54.3893 73.2118 -86.6203 55.0269 73.7589 
-75.9793 -4.35396 38.1762 -75.0194 -3.59647 38.8662 -76.102 -2.98535 38.2895 
-30.564 114.04 48.3899 -30.4315 112.977 48.8614 -29.4145 113.704 48.5868 
-12.21 56.243 69.7733 -11.369 55.4657 69.1451 -11.0325 56.6921 68.9163 
-56.367 116.264 59.8181 -56.4661 117.327 58.9049 -57.2063 116.287 58.596 
-64.0355 90.404 76.3213 -64.6783 89.2794 75.3762 -63.9521 89.06 76.3811 
-56.0087 58.4824 88.8714 -54.8063 59.1778 89.1009 -55.9847 59.9073 88.8819 
-80.3196 76.2086 76.8404 -79.1172 75.4471 77.0504 -79.1658 76.8495 77.0313 
-89.96 77.8476 74.1451 -90.9104 78.3296 73.6318 -91.1075 77.2249 73.5838 
-88.4193 45.472 70.4611 -89.34 45.0365 69.4857 -88.3275 44.1299 70.0549 
-112.324 115.868 12.7308 -112.14 114.679 13.5578 -111.746 115.801 14.1224 
-11.532 111.17 45.2855 -12.2483 110.235 46.0677 -11.1412 109.79 45.3771 
-90.0678 39.0831 66.7663 -90.1353 38.0393 66.2499 -89.243 38.1744 67.1878 
-53.1783 95.9776 86.0724 -52.0316 96.7917 86.5787 -53.2153 97.4551 86.0343 
-54.307 96.6723 85.5572 -91.1532 74.4939 73.371 -92.214 75.2547 72.8309 
-92.2572 73.9791 72.6531 -90.52 116.873 47.721 -91.6387 117.525 47.3802 
-91.6498 116.429 47.2617 -97.0988 82.0421 68.2884 -96.1929 82.9262 68.8324 
-96.9696 83.1995 67.9818 -48.6652 74.3405 87.8928 -49.8968 74.9519 87.5949 
-50.0636 73.6674 88.3088 -86.5031 77.0481 75.5258 -87.6438 77.7684 75.1272 
-87.7114 76.4442 75.0815 -57.1575 51.8771 89.0935 -58.3851 51.2293 88.9315 
-57.2984 50.6767 89.1971 -114.511 123.389 5.99261 -113.579 124.711 6.21872 
-114.592 124.78 5.52092 -65.5246 37.9457 88.5061 -66.5527 38.5415 87.7796 
-66.4488 37.2475 87.8945 -66.5357 39.9879 87.6684 -65.4937 39.3454 88.3826 
-65.4631 40.7519 88.2139 -89.8978 60.0581 72.2292 -88.8477 59.349 72.8844 
-88.8499 60.7354 72.8945 -78.4644 33.3877 76.1194 -78.2834 34.6632 76.6966 
-79.2206 34.5746 75.6718 -88.7923 56.5089 72.7719 -88.6204 55.202 72.7176 
-66.5345 41.3696 87.5018 -73.0773 76.1976 78.4679 -71.9812 75.5631 79.1227 
-72.0151 76.9205 78.6697 -88.7495 78.4361 74.6696 -88.8435 77.1759 74.6403 
-89.9184 61.4163 72.2304 -32.414 86.1615 72.2838 -33.3816 87.1298 72.6939 
-33.447 85.7704 73.0696 -65.5271 36.569 88.5392 -70.6836 50.6256 83.0235 
-70.5878 49.267 83.3666 -69.5823 50.137 83.8848 -80.6414 52.7461 75.4473 
-81.8612 51.9841 74.9691 -80.7538 51.281 75.486 -87.184 101.427 57.7414 
-86.1335 101.992 57.8545 -87.145 102.628 57.0975 -68.5783 71.0991 81.9503 
-68.5363 69.6719 82.0684 -67.523 70.4963 82.7037 -90.91 60.7736 71.5076 
-63.4216 36.5665 89.9058 -62.3632 35.7224 90.579 -62.1125 37.2937 90.6267 
-9.90581 39.4011 62.4053 -9.17559 40.6848 62.1429 -10.1201 40.5618 63.2154 
-70.8851 138.604 50.5801 -69.6748 137.882 51.0002 -69.689 139.249 50.6278 
-88.7449 79.8183 74.5741 -88.7519 81.2258 74.3587 -89.8718 80.4596 73.9708 
-91.1298 75.8503 73.538 -90.0204 75.1021 74.019 -89.9983 76.5068 74.1224 
-59.6219 47.7174 89.0588 -60.8236 48.2709 88.5912 -60.7997 46.8863 88.8645 
-84.9041 127.038 48.9264 -84.8622 125.613 49.2442 -83.7552 126.463 49.4346 
-66.5594 48.5967 86.1112 -67.5981 49.1395 85.3989 -67.5668 47.863 85.662 
-88.8807 75.7885 74.5728 -64.4723 37.2717 89.2055 -69.4105 58.16 80.9678 
-70.358 58.5228 79.924 -70.3524 57.2417 80.61 -59.6484 57.6552 87.7795 
-60.7892 58.3009 87.1911 -60.7866 56.8801 87.3789 -114.388 61.063 3.69107 
-114.965 61.2481 2.47054 -114.832 59.9115 2.78716 -64.1111 70.3835 84.706 
-65.1277 69.7115 84.182 -64.1252 69.0741 84.5493 -65.2635 70.9026 84.0581 
-61.8855 58.9229 86.5054 -61.906 57.5216 86.7466 -87.7602 58.6133 73.4541 
-87.7476 60.0345 73.4741 -67.5763 40.5707 86.8972 -89.8748 81.8431 73.7162 
-88.7394 82.6073 74.0687 -92.0798 64.2717 70.9994 -91.0278 63.5357 71.6638 
-91.2642 64.671 71.6346 -87.7422 61.4677 73.4405 -86.6158 60.8245 73.8506 
-67.5159 71.9259 82.4785 -68.5899 72.5126 81.7213 -69.6588 71.6813 81.2341 
-70.6359 70.9167 80.6951 -69.6152 70.2561 81.3415 -86.6382 57.9044 73.9517 
-87.761 57.1931 73.4064 -86.6515 56.4854 73.8931 -66.4159 52.7322 85.2694 
-66.4231 51.3461 85.6187 -65.3585 52.1791 86.0246 -89.8596 83.1913 73.3675 
-68.4834 48.1552 84.9757 -65.4494 42.1637 87.9912 -66.5349 42.7677 87.2745 
-61.7794 39.0239 90.5675 -61.7047 40.4675 90.2972 -62.9086 39.629 89.8368 
-64.3102 45.7983 87.7334 -65.4374 46.422 87.05 -65.4267 44.9874 87.3806 
-87.6283 79.1793 75.0973 -87.6059 80.5964 74.9372 -54.3293 98.0724 85.3577 
-55.4281 97.2358 84.7981 -89.8733 79.068 74.1235 -65.4415 47.9517 86.7697 
-64.326 48.749 87.1522 -65.4406 49.396 86.54 -62.9748 58.1152 86.0022 
-87.5929 81.9999 74.6833 -79.561 52.079 76.1183 -22.4891 25.6756 69.4756 
-21.6268 25.7655 68.3779 -21.5434 26.8465 69.2992 -21.7597 118.229 49.2847 
-21.95 119.596 49.1467 -23.2954 118.947 49.1575 -90.9695 82.4226 72.9856 
-90.9803 81.0467 73.2715 -60.6113 38.4567 91.2887 -60.584 39.8854 91.0265 
-63.1252 53.7914 86.8298 -63.1 55.221 86.5408 -64.222 54.3926 86.105 
-94.1857 80.0474 71.3315 -93.2039 79.246 72.1562 -93.1426 80.7462 71.976 
-88.9056 72.928 74.2324 -90.0532 72.3148 73.6106 -88.9183 71.5336 73.9906 
-90.0381 73.7029 73.8373 -70.7981 72.2119 80.5006 -60.7779 59.7168 86.9774 
-64.2777 51.5953 86.6945 -65.3768 50.7859 86.3215 -64.3074 50.184 86.9357 
-64.3059 41.565 88.7037 -67.5672 39.0835 87.026 -64.2515 52.9928 86.4193 
-92.8568 62.3667 70.1066 -91.8929 61.5432 70.7761 -91.9886 62.9244 70.9137 
-81.8712 49.1028 74.9742 -80.7645 49.8483 75.5799 -81.8813 50.5407 74.9738 
-87.8071 66.4359 73.5658 -88.9453 67.2406 73.2002 -88.9565 65.6666 73.0113 
-63.0229 56.7075 86.2753 -61.9329 56.0886 86.9782 -88.5948 53.8093 72.4844 
-88.8509 57.9155 72.8176 -60.6659 41.2525 90.5885 -91.1784 71.7257 72.9264 
-90.0682 70.9278 73.3535 -91.1655 73.0997 73.17 -64.0826 57.2822 85.4866 
-64.0315 58.6259 85.1636 -65.1261 57.8121 84.6389 -65.5595 31.0114 87.7024 
-65.5713 32.4322 88.0374 -66.5962 31.8758 87.1845 -70.2439 46.3451 84.0378 
-71.2859 45.5192 83.4488 -70.2322 44.9022 84.2587 -71.2561 46.9656 83.2109 
-89.3829 117.538 48.1332 -88.2109 116.815 48.6026 -88.2369 118.24 48.4686 
-84.2701 44.829 73.3408 -84.2383 46.2626 73.5658 -85.3087 45.6711 72.8007 
-61.9983 47.4647 88.3195 -66.5611 44.2022 86.9323 -65.4277 43.5709 87.7034 
-59.4196 36.5245 92.2026 -59.4307 37.8951 92.0065 -60.5306 36.9654 91.5506 
-63.1648 50.967 87.3141 -69.5106 48.7236 84.2037 -83.1975 45.4641 74.1069 
-83.2389 44.0029 73.9236 -70.5911 33.9588 84.447 -71.2205 33.392 83.7774 
-70.5075 32.6575 84.2725 -67.4627 53.2546 84.4619 -68.5158 52.3912 84.0194 
-67.4816 51.8657 84.849 -87.7521 62.9944 73.3846 -86.6271 62.3319 73.7596 
-88.8479 62.1387 72.8889 -88.6015 52.3823 72.1587 -82.088 46.1505 74.8334 
-82.1599 44.6951 74.7306 -75.0751 52.2329 79.2483 -75.1566 50.9444 79.5231 
-74.1227 51.8083 80.1235 -75.5261 71.6999 78.136 -74.3934 70.945 78.641 
-74.3641 72.4633 78.6377 -69.6927 73.088 80.9827 -66.5902 47.1807 86.3301 
-70.5459 31.2689 83.8996 -71.2877 32.1475 83.4648 -59.6554 59.0784 87.6358 
-58.4684 59.8482 88.0403 -59.6062 60.5016 87.3998 -61.9908 53.1718 87.4617 
-61.9761 54.5961 87.214 -86.4508 79.9198 75.4575 -89.5562 55.9202 72.1516 
-89.5855 54.6709 71.9113 -84.2274 50.5815 74.0438 -85.3468 49.9421 73.5041 
-84.2094 49.1492 73.8957 -90.9677 62.1386 71.5549 -72.3179 59.0856 77.8145 
-72.4066 60.1502 77.1497 -73.437 59.4889 76.7537 -85.3936 64.8219 74.0183 
-84.2147 65.4635 74.3522 -85.3931 66.2892 74.2552 -64.3046 44.3976 88.079 
-68.4934 53.7649 83.5983 -69.5239 52.8929 83.1626 -95.7992 113.154 44.7614 
-95.5252 111.629 45.0837 -94.7912 112.763 45.5687 -59.1155 32.839 92.1485 
-60.1983 33.6861 91.6821 -60.2384 32.275 91.441 -90.6403 118.286 47.7856 
-91.8025 118.862 47.2794 -63.1455 52.3871 87.0895 -54.3243 99.3266 85.0764 
-53.2107 98.877 85.7626 -53.4202 100.142 85.2393 -71.4676 61.1556 77.4032 
-71.7173 62.1937 77.0414 -73.3159 68.5318 78.9304 -74.4276 69.3534 78.4718 
-74.4058 67.9328 78.1721 -88.7079 83.9768 73.6709 -61.3277 31.7389 90.6636 
-61.2965 33.1432 90.953 -62.3801 32.6301 90.1724 -67.4764 73.3481 82.1357 
-64.3204 47.2375 87.4122 -70.6436 52.0139 82.6479 -69.5685 51.5389 83.5535 
-69.5448 54.2154 82.6585 -68.4861 55.1083 83.12 -59.4462 39.305 91.7033 
-64.172 71.781 84.5151 -65.2839 72.2904 83.7354 -58.4813 58.4196 88.1712 
-90.0822 64.4956 72.3302 -89.9397 62.8359 72.2858 -88.8941 63.6956 72.9164 
-64.1862 73.155 84.1274 -62.003 51.7496 87.686 -63.1767 49.5382 87.5199 
-62.01 50.3157 87.8716 -93.3044 74.8527 72.0984 -64.3041 40.149 88.9569 
-64.39 38.7114 89.106 -92.2703 68.2673 71.5861 -91.1956 67.4361 72.1102 
-91.1969 68.8587 72.3707 -92.2787 69.6873 71.8755 -65.3227 54.9822 85.3125 
-66.3975 54.1231 84.8822 -65.3342 53.5782 85.6843 -85.4475 57.182 74.2992 
-74.1745 53.1722 79.6897 -63.0267 71.2177 85.1844 -86.6065 59.338 73.9229 
-66.5201 49.992 85.8719 -66.3244 56.8984 84.0473 -67.4171 55.9883 83.5668 
-66.3812 55.5116 84.4617 -87.649 52.9491 72.9121 -86.5741 52.1322 73.3278 
-85.4153 51.3459 73.7145 -86.5023 50.7428 73.0995 -60.8246 53.9665 87.8189 
[...]
POINT_DATA 17185
SCALARS RegionLabels vtkIdType
LOOKUP_TABLE default
0 1 2 3 4 5 6 7 8 
9 10 11 12 13 14 15 16 17 
18 19 20 21 22 23 24 25 26 
27 28 29 30 31 32 33 34 35 
36 37 38 39 40 41 42 43 44 
45 46 47 48 49 50 51 52 53 
54 55 56 57 58 59 60 61 62 
63 64 65 66 67 68 69 70 71 
72 73 74 75 76 77 78 79 80 
81 82 83 84 85 86 87 88 89 
90 91 92 93 94 95 96 97 98 
99 100 101 102 103 104 105 106 107 
108 109 110 111 112 113 114 115 116 
117 118 119 120 121 122 123 124 125 
126 127 128 129 130 131 132 133 134 
135 136 137 138 139 140 141 142 143 
144 145 146 147 148 149 150 151 152 
153 154 155 156 157 158 159 160 161 
162 163 164 165 166 167 168 169 170 
171 172 173 174 175 176 177 178 179 
180 181 182 183 184 185 186 187 188 
189 190 191 192 193 194 195 196 197 
198 199 200 201 202 203 204 205 206 
207 208 209 210 211 212 213 214 215 
216 217 218 219 220 221 222 223 224 
225 226 227 228 229 230 231 232 233 
234 235 236 237 238 239 240 241 242 
243 244 245 246 247 248 249 250 251 
252 253 254 255 256 257 258 259 260 
261 262 263 264 265 266 267 268 269 
270 271 272 273 274 275 276 277 278 
279 280 281 282 283 284 285 286 287 
288 289 290 291 292 293 294 295 296 
297 298 299 300 301 302 303 304 305 
306 307 308 309 310 311 312 313 314 
315 316 317 318 319 320 321 322 323 
324 325 326 327 328 329 330 331 332 
333 334 335 336 337 338 339 340 341 
342 343 344 345 346 347 348 349 350 
351 352 353 354 355 356 357 358 359 
360 361 362 363 364 365 366 367 368 
369 370 371 372 373 374 375 376 377 
378 379 380 381 382 383 384 385 386 
387 388 389 390 391 392 393 394 395 
396 397 398 399 400 401 402 403 404 
405 406 407 408 409 410 411 412 413 
414 415 416 417 418 419 420 421 422 
423 424 425 426 427 428 429 430 431 
432 433 434 435 436 437 438 439 440 
441 442 443 444 445 446 447 448 449 
450 451 452 453 454 455 456 457 458 
459 460 461 462 463 464 465 466 467 
468 469 470 471 472 473 474 475 476 
477 478 479 480 481 482 483 484 485 
486 487 488 489 490 491 492 493 494 
495 496 497 498 499 500 501 502 503 
504 505 506 507 508 509 510 511 512 
513 514 515 516 517 518 519 520 521 
522 523 524 525 526 527 528 529 530 
531 532 533 534 535 536 537 538 539 
540 541 542 543 544 545 546 547 548 
549 550 551 552 553 554 555 556 557 
558 559 560 561 562 563 564 565 566 
567 568 569 570 571 572 573 574 575 
576 577 578 579 580 581 582 583 584 
585 586 587 588 589 590 591 592 593 
594 595 596 597 598 599 600 601 602 
603 604 605 606 607 608 609 610 611 
612 613 614 615 616 617 618 619 620 
621 622 623 624 625 626 627 628 629 
630 631 632 633 634 635 636 637 638 
639 640 641 642 643 644 645 646 647 
648 649 650 651 652 653 654 655 656 
657 658 659 660 661 662 663 664 665 
666 667 668 669 670 671 672 673 674 
675 676 677 678 679 680 681 682 683 
684 685 686 687 688 689 690 691 692 
693 694 695 696 697 698 699 700 701 
702 703 704 705 706 707 708 709 710 
711 712 713 714 715 716 717 718 719 
720 721 722 723 724 725 726 727 728 
729 730 731 732 733 734 735 736 737 
738 739 740 741 742 743 744 745 746 
747 748 749 750 751 752 753 754 755 
756 757 758 759 760 761 762 763 764 
765 766 767 768 769 770 771 772 773 
774 775 776 777 778 779 780 781 782 
783 784 785 786 787 788 789 790 791 
792 793 794 795 796 797 798 799 800 
801 802 803 804 805 806 807 808 809 
810 811 812 813 814 815 816 817 818 
819 820 821 822 823 824 825 826 827 
828 829 830 831 832 833 834 835 836 
837 838 839 840 841 842 843 844 845 
846 847 848 849 850 851 852 853 854 
855 856 857 858 859 860 861 862 863 
864 865 866 867 868 869 870 871 872 
873 874 875 876 877 878 879 880 881 
882 883 884 885 886 887 888 889 890 
891 892 893 894 895 896 897 898 899 
900 901 902 903 904 905 906 907 908 
909 910 911 912 913 914 915 916 917 
918 919 920 921 922 923 924 925 926 
927 928 929 930 931 932 933 934 935 
936 937 938 939 940 941 942 943 944 
945 946 947 948 949 950 951 952 953 
954 955 956 957 958 959 960 961 962 
963 964 965 966 967 968 969 970 971 
972 973 974 975 976 977 978 979 980 
981 982 983 984 985 986 987 988 989 
990 991 992 993 994 995 996 997 998 
999 1000 1001 1002 1003 1004 1005 1006 1007 
1008 1009 1010 1011 1012 1013 1014 1015 1016 
1017 1018 1019 1020 1021 1022 1023 1024 1025 
1026 1027 1028 1029 1030 1031 1032 1033 1034 
1035 1036 1037 1038 1039 1040 1041 1042 1043 
1044 1045 1046 1047 1048 1049 1050 1051 1052 
1053 1054 1055 1056 1057 1058 1059 1060 1061 
1062 1063 1064 1065 1066 1067 1068 1069 1070 
1071 1072 1073 1074 1075 1076 1077 1078 1079 
1080 1081 1082 1083 1084 1085 1086 1087 1088 
1089 1090 1091 1092 1093 1094 1095 1096 1097 
1098 1099 1100 1101 1102 1103 1104 1105 1106 
1107 1108 1109 1110 1111 1112 1113 1114 1115 
1116 1117 1118 1119 1120 1121 1122 1123 1124 
1125 1126 1127 1128 1129 1130 1131 1132 1133 
1134 1135 1136 1137 1138 1139 1140 1141 1142 
1143 1144 1145 1146 1147 1148 1149 1150 1151 
1152 1153 1154 1155 1156 1157 1158 1159 1160 
1161 1162 1163 1164 1165 1166 1167 1168 1169 
1170 1171 1172 1173 1174 1175 1176 1177 1178 
1179 1180 1181 1182 1183 1184 1185 1186 1187 
1188 1189 1190 1191 1192 1193 1194 1195 1196 
1197 1198 1199 1200 1201 1202 1203 1204 1205 
1206 1207 1208 1209 1210 1211 1212 1213 1214 
1215 1216 1217 1218 1219 1220 1221 1222 1223 
1224 1225 1226 1227 1228 1229 1230 1231 1232 
1233 1234 1235 1236 1237 1238 1239 1240 1241 
1242 1243 1244 1245 1246 1247 1248 1249 1250 
1251 1252 1253 1254 1255 1256 1257 1258 1259 
1260 1261 1262 1263 1264 1265 1266 1267 1268 
1269 1270 1271 1272 1273 1274 1275 1276 1277 
1278 1279 1280 1281 1282 1283 1284 1285 1286 
1287 1288 1289 1290 1291 1292 1293 1294 1295 
1296 1297 1298 1299 1300 1301 1302 1303 1304 
1305 1306 1307 1308 1309 1310 1311 1312 1313 
1314 1315 1316 1317 1318 1319 1320 1321 1322 
1323 1324 1325 1326 1327 1328 1329 1330 1331 
1332 1333 1334 1335 1336 1337 1338 1339 1340 
1341 1342 1343 1344 1345 1346 1347 1348 1349 
1350 1351 1352 1353 1354 1355 1356 1357 1358 
1359 1360 1361 1362 1363 1364 1365 1366 1367 
1368 1369 1370 1371 1372 1373 1374 1375 1376 
1377 1378 1379 1380 1381 1382 1383 1384 1385 
1386 1387 1388 1389 1390 1391 1392 1393 1394 
1395 1396 1397 1398 1399 1400 1401 1402 1403 
1404 1405 1406 1407 1408 1409 1410 1411 1412 
1413 1414 1415 1416 1417 1418 1419 1420 1421 
1422 1423 1424 1425 1426 1427 1428 1429 1430 
1431 1432 1433 1434 1435 1436 1437 1438 1439 
1440 1441 1442 1443 1444 1445 1446 1447 1448 
1449 1450 1451 1452 1453 1454 1455 1456 1457 
1458 1459 1460 1461 1462 1463 1464 1465 1466 
1467 1468 1469 1470 1471 1472 1473 1474 1475 
1476 1477 1478 1479 1480 1481 1482 1483 1484 
1485 1486 1487 1488 1489 1490 1491 1492 1493 
1494 1495 1496 1497 1498 1499 1500 1501 1502 
1503 1504 1505 1506 1507 1508 1509 1510 1511 
1512 1513 1514 1515 1516 1517 1518 1519 1520 
1521 1522 1523 1524 1525 1526 1527 1528 1529 
1530 1531 1532 1533 1534 1535 1536 1537 1538 
1539 1540 1541 1542 1543 1544 1545 1546 1547 
1548 1549 1550 1551 1552 1553 1554 1555 1556 
1557 1558 1559 1560 1561 1562 1563 1564 1565 
1566 1567 1568 1569 1570 1571 1572 1573 1574 
1575 1576 1577 1578 1579 1580 1581 1582 1583 
1584 1585 1586 1587 1588 1589 1590 1591 1592 
1593 1594 1595 1596 1597 1598 1599 1600 1601 
1602 1603 1604 1605 1606 1607 1608 1609 1610 
1611 1612 1613 1614 1615 1616 1617 1618 1619 
1620 1621 1622 1623 1624 1625 1626 1627 1628 
1629 1630 1631 1632 1633 1634 1635 1636 1637 
1638 1639 1640 1641 1642 1643 1644 1645 1646 
1647 1648 1649 1650 1651 1652 1653 1654 1655 
1656 1657 1658 1659 1660 1661 1662 1663 1664 
1665 1666 1667 1668 1669 1670 1671 1672 1673 
1674 1675 1676 1677 1678 1679 1680 1681 1682 
1683 1684 1685 1686 1687 1688 1689 1690 1691 
1692 1693 1694 1695 1696 1697 1698 1699 1700 
1701 1702 1703 1704 1705 1706 1707 1708 1709 
1710 1711 1712 1713 1714 1715 1716 1717 1718 
1719 1720 1721 1722 1723 1724 1725 1726 1727 
1728 1729 1730 1731 1732 1733 1734 1735 1736 
1737 1738 1739 1740 1741 1742 1743 1744 1745 
1746 1747 1748 1749 1750 1751 1752 1753 1754 
1755 1756 1757 1758 1759 1760 1761 1762 1763 
1764 1765 1766 1767 1768 1769 1770 1771 1772 
1773 1774 1775 1776 1777 1778 1779 1780 1781 
1782 1783 1784 1785 1786 1787 1788 1789 1790 
1791 1792 1793 1794 1795 1796 1797 1798 1799 
1800 1801 1802 1803 1804 1805 1806 1807 1808 
1809 1810 1811 1812 1813 1814 1815 1816 1817 
1818 1819 1820 1821 1822 1823 1824 1825 1826 
1827 1828 1829 1830 1831 1832 1833 1834 1835 
1836 1837 1838 1839 1840 1841 1842 1843 1844 
1845 1846 1847 1848 1849 1850 1851 1852 1853 
1854 1855 1856 1857 1858 1859 1860 1861 1862 
1863 1864 1865 1866 1867 1868 1869 1870 1871 
1872 1873 1874 1875 1876 1877 1878 1879 1880 
1881 1882 1883 1884 1885 1886 1887 1888 1889 
1890 1891 1892 1893 1894 1895 1896 1897 1898 
1899 1900 1901 1902 1903 1904 1905 1906 1907 
1908 1909 1910 1911 1912 1913 1914 1915 1916 
1917 1918 1919 1920 1921 1922 1923 1924 1925 
1926 1927 1928 1929 1930 1931 1932 1933 1934 
1935 1936 1937 1938 1939 1940 1941 1942 1943 
1944 1945 1946 1947 1948 1949 1950 1951 1952 
1953 1954 1955 1956 1957 1958 1959 1960 1961 
1962 1963 1964 1965 1966 1967 1968 1969 1970 
1971 1972 1973 1974 1975 1976 1977 1978 1979 
1980 1981 1982 1983 1984 1985 1986 1987 1988 
1989 1990 1991 1992 1993 1994 1995 1996 1997 
1998 1999 2000 2001 2002 2003 2004 2005 2006 
2007 2008 2009 2010 2011 2012 2013 2014 2015 
2016 2017 2018 2019 2020 2021 2022 2023 2024 
2025 2026 2027 2028 2029 2030 2031 2032 2033 
2034 2035 2036 2037 2038 2039 2040 2041 2042 
2043 2044 2045 2046 2047 2048 2049 2050 2051 
2052 2053 2054 2055 2056 2057 2058 2059 2060 
2061 2062 2063 2064 2065 2066 2067 2068 2069 
2070 2071 2072 2073 2074 2075 2076 2077 2078 
2079 2080 2081 2082 2083 2084 2085 2086 2087 
2088 2089 2090 2091 2092 2093 2094 2095 2096 
2097 2098 2099 2100 2101 2102 2103 2104 2105 
2106 2107 2108 2109 2110 2111 2112 2113 2114 
2115 2116 2117 2118 2119 2120 2121 2122 2123 
2124 2125 2126 2127 2128 2129 2130 2131 2132 
2133 2134 2135 2136 2137 2138 2139 2140 2141 
2142 2143 2144 2145 2146 2147 2148 2149 2150 
2151 2152 2153 2154 2155 2156 2157 2158 2159 
2160 2161 2162 2163 2164 2165 2166 2167 2168 
2169 2170 2171 2172 2173 2174 2175 2176 2177 
2178 2179 2180 2181 2182 2183 2184 2185 2186 
2187 2188 2189 2190 2191 2192 2193 2194 2195 
2196 2197 2198 2199 2200 2201 2202 2203 2204 
2205 2206 2207 2208 2209 2210 2211 2212 2213 
2214 2215 2216 2217 2218 2219 2220 2221 2222 
2223 2224 2225 2226 2227 2228 2229 2230 2231 
2232 2233 2234 2235 2236 2237 2238 2239 2240 
2241 2242 2243 2244 2245 2246 2247 2248 2249 
2250 2251 2252 2253 2254 2255 2256 2257 2258 
2259 2260 2261 2262 2263 2264 2265 2266 2267 
2268 2269 2270 2271 2272 2273 2274 2275 2276 
2277 2278 2279 2280 2281 2282 2283 2284 2285 
2286 2287 2288 2289 2290 2291 2292 2293 2294 
2295 2296 2297 2298 2299 2300 2301 2302 2303 
2304 2305 2306 2307 2308 2309 2310 2311 2312 
2313 2314 2315 2316 2317 2318 2319 2320 2321 
2322 2323 2324 2325 2326 2327 2328 2329 2330 
2331 2332 2333 2334 2335 2336 2337 2338 2339 
2340 2341 1894 2342 2343 2344 2345 2346 2347 
2348 2349 2350 2351 2352 2353 2354 2355 2356 
2357 2358 2359 2360 2361 2362 2363 2364 2365 
2366 2367 2368 2369 2370 2371 2372 2373 2374 
2375 2376 2377 2378 2379 2380 2381 2382 2383 
2384 2385 2386 2387 2388 2389 2390 2391 2392 
2393 2394 2395 2396 2397 2398 2399 2400 2401 
2402 2403 2404 2405 2406 2407 2408 2409 2410 
2411 2412 2413 2414 2415 2416 2417 2418 2419 
2420 2421 2422 2423 2424 2425 2426 2427 2428 
2429 2430 2431 2432 2433 2434 2435 2436 2437 
2438 2439 2440 2441 2442 2443 2444 2445 2446 
2447 2448 2449 2450 2451 2452 2453 2454 2455 
2456 2457 2458 2459 2460 2461 2462 2463 2464 
2465 2466 2467 2468 2469 2470 2471 2472 2473 
2474 2475 2476 2477 2478 2479 2480 2481 2482 
2483 2484 2485 2486 2487 2488 2489 2490 2491 
2492 2493 2494 2495 2496 2497 2498 2499 2500 
2501 2502 2503 2504 2505 2506 2507 2508 2509 
2510 2511 2512 2513 2514 2515 2516 2517 2518 
2519 2520 2521 2522 2523 2524 2525 2526 2527 
2528 2529 2530 2531 2532 2533 2534 2535 2536 
2537 2538 2539 2540 2541 2542 2543 2544 2545 
2546 2547 2548 2549 2550 2551 2552 2553 2554 
2555 2556 2557 2558 2559 2560 2561 2562 2563 
2564 2565 2566 2567 2568 2569 2570 2571 2572 
2573 2574 2575 2576 2577 2578 2579 2580 2581 
2582 2583 2584 2585 2586 2587 2588 2589 2590 
2591 2592 2593 2594 2595 2596 2597 2598 2599 
2600 2601 2602 2603 2604 2605 2606 2607 2608 
2609 2610 2611 2612 2613 2614 2615 2616 2617 
2618 2619 2620 2621 2622 2623 2624 2625 2626 
2627 2628 2629 2630 2631 2632 2633 2634 2635 
2636 2637 2638 2639 2640 2641 2642 2643 2644 
2645 2646 2647 2648 2649 2650 2651 2652 2653 
2654 2655 2656 2657 2658 2659 2660 2661 2662 
2663 2664 2665 2666 2667 2668 2669 2670 2671 
2672 2673 2674 2675 2676 2677 2678 2679 2680 
2681 2682 2683 2684 2685 2686 2687 2688 2689 
2690 2691 2692 2693 2694 2695 2696 2697 2698 
2699 2700 2701 2702 2703 2704 2705 2706 2707 
2708 2709 2710 2711 2712 2713 2714 2715 2716 
2717 2718 2719 2720 2721 2722 2723 2724 2725 
2726 2727 2728 2729 2730 2731 2732 2733 2734 
2735 2736 2737 2738 2739 2740 2741 2742 2743 
2744 2745 2746 2747 2748 2749 2750 2751 2752 
2753 2754 2755 2756 2757 2758 2759 2760 2761 
2762 2763 2764 2765 2766 2767 2768 2769 2770 
2771 2772 2773 2774 2775 2776 2777 2778 2779 
2780 2781 2782 2783 2784 2785 2786 2787 2788 
2789 2790 2791 2792 2793 2794 2795 2796 1797 
2797 2798 2799 2800 2801 2802 2803 2804 2805 
2806 2807 2808 2809 2810 2811 2812 2813 2814 
2815 2816 2817 2818 2819 2820 2821 2822 2823 
2824 2825 2826 2827 2828 2829 2830 2831 2832 
2833 2834 2835 2836 2837 2838 2839 2840 2841 
2842 2843 2844 2845 2846 2847 2848 2849 2850 
2851 2852 2853 2854 2855 2856 2857 2858 2859 
2860 2861 2862 2863 2864 2865 2866 2867 2868 
2869 2870 2871 2872 2873 2874 2875 2876 2877 
2878 2879 2880 2881 2882 2883 2884 2885 2886 
2887 2888 2889 2890 2891 2892 2893 2894 2895 
2896 2897 2898 2899 2900 2901 2902 2903 2904 
2905 2906 2574 2907 2908 2909 2910 2911 2912 
2913 2914 2915 2916 2917 2918 2919 2920 2921 
2922 2923 2924 2925 2926 2927 2928 2929 2930 
2931 2932 2933 2934 2935 2936 2937 2938 2939 
2940 2941 2942 2943 2944 2945 2946 2947 2948 
2949 2950 2951 2952 2953 2954 2955 2956 2957 
2958 2959 2960 2961 2962 2963 2964 2965 2966 
2967 2968 2969 2970 2971 2972 2973 2974 2975 
2976 2977 2978 2979 2980 2981 2982 2983 2984 
2985 2986 2987 2988 2989 2990 2991 2992 2993 
2994 2995 2996 2997 2998 2999 3000 3001 3002 
3003 3004 3005 3006 3007 3008 3009 3010 3011 
3012 3013 3014 3015 3016 3017 3018 3019 3020 
3021 3022 3023 3024 3025 3026 3027 3028 3029 
3030 3031 3032 3033 3034 3035 3036 3037 3038 
3039 3040 3041 3042 3043 3044 3045 3046 3047 
3048 3049 3050 3051 3052 3053 3054 3055 3056 
3057 3058 3059 3060 3061 3062 3063 3064 3065 
3066 3067 3068 3069 3070 3071 3072 3073 3074 
3075 3076 3077 3078 3079 3080 3081 3082 3083 
3084 3085 3086 3087 3088 3089 3090 3091 3092 
3093 3094 3095 3096 3097 3098 3099 3100 3101 
3102 3103 3104 3105 3106 3107 3108 3109 3110 
3111 3112 3113 3114 3115 3116 3117 3118 3119 
3120 3121 3122 3123 3124 3125 3126 3127 3128 
3129 3130 3131 3132 3133 3134 3135 3136 3137 
3138 3139 3140 3141 3142 3143 3144 3145 3146 
3147 3148 3149 3150 3151 3152 3153 3154 3155 
3156 3157 3158 3159 3160 3161 3162 3163 3164 
3165 3166 3167 3168 3169 3170 3171 3172 3173 
3174 3175 3176 3177 3178 3179 3180 3181 3182 
3183 3184 3185 3186 3187 3188 3189 3190 3191 
3192 3193 3194 3195 3196 3197 3198 3199 3200 
3201 3202 3203 3204 3205 3206 3207 3208 3209 
3210 3211 3212 3213 3214 3215 3216 3217 3218 
3219 3220 3221 3222 3223 3224 3225 3226 3227 
3228 3229 3230 3231 3232 3233 3234 3235 3236 
3237 3238 3239 3240 3241 2574 3242 3243 3244 
3245 3246 3247 3248 3249 3250 3251 3252 3253 
3254 3255 3256 3257 3258 3259 3260 3261 3262 
3263 3264 3265 3266 3267 3268 3269 3270 3271 
3272 3273 3274 3275 3276 3277 3278 3279 3280 
3281 3282 3283 3284 3285 3286 3287 3288 3289 
3290 3291 3292 3293 3294 3295 3296 3297 3298 
3299 3300 3301 3302 3303 3304 3305 3306 3307 
3308 3309 3310 3311 3312 3313 3314 3315 3316 
3317 3318 3319 3320 3321 3322 3323 3324 3325 
3326 3327 3328 3329 3330 3331 3332 3333 3334 
3335 3336 3337 3338 3339 3340 3341 3342 3343 
3344 3345 3346 3347 3348 3349 3350 3351 3352 
3353 3354 3355 3356 3357 3358 3359 3360 3361 
3362 3363 3364 3365 3366 3367 3368 3369 3370 
3371 3372 3373 3374 3375 3376 3377 3378 3379 
3380 3381 3382 3383 3384 3385 3386 3387 3388 
3389 3390 3391 3392 3393 3394 3395 3396 3397 
3398 3399 3400 3401 3402 3403 3404 3405 3406 
3407 3408 3409 3410 3411 3412 3413 3414 3415 
3416 3417 3418 3419 3420 3421 3422 3423 3424 
3425 3426 3427 3428 3429 3430 3431 3432 3433 
3434 3435 3436 3437 3438 3439 3440 3441 3442 
3443 3444 3445 3446 3447 3448 3449 3450 3451 
3452 3453 3454 3455 3456 3457 3458 3459 3460 
3461 3462 3463 3464 3465 3466 3467 3468 3469 
3470 3471 3472 3473 3474 3475 3476 3477 3478 
3479 3480 3481 3482 3483 3484 3485 3486 3487 
3488 3489 3490 3491 3492 3493 3494 3495 3496 
3497 3498 3499 3500 3501 3502 3503 3504 3505 
3506 3507 3508 3509 3510 3511 3512 3513 3514 
3515 3516 3517 3518 3519 3520 3521 3522 3523 
3524 3525 3526 3527 3528 3529 3530 3531 3532 
3533 3534 3535 3536 3537 3538 3539 3540 3541 
3542 3543 3544 3545 3546 3547 3548 3549 3550 
3551 3552 3553 3554 3555 3556 3557 3558 3559 
3560 3561 3562 3563 3564 3565 3566 3567 3568 
3569 3570 3571 3572 3573 3574 3575 3576 3577 
3578 3579 3580 3581 3582 3583 3584 3585 3586 
3587 3588 3589 3590 3591 3592 3593 3594 3595 
3596 3597 3598 3599 3600 3601 3602 3603 3604 
3605 3606 3607 3608 3609 3610 3611 3612 3613 
3614 3615 3616 3617 3618 3619 3620 3621 3622 
3623 3624 3625 3626 3627 3628 3629 3630 3631 
3632 3633 3634 3635 3636 3637 3638 3639 3640 
3641 3642 3643 3644 3645 3646 3647 3648 3649 
3650 3651 3652 3653 3654 3655 3656 3657 3658 
3659 3660 3661 3662 3663 3664 3665 3666 3667 
3668 3669 3670 3671 3672 3673 3674 3675 3676 
3677 3678 3679 3680 3681 3682 3683 3684 3685 
3686 3687 3688 3689 3690 3691 3692 3693 3694 
3695 3696 3697 3698 3699 3700 3701 3702 3703 
3704 3705 3706 3707 3708 3709 3710 3711 3712 
3713 3714 3715 3716 3717 3718 3719 3720 3721 
3722 3723 3724 3725 3726 3727 3728 3729 3730 
3731 3732 3733 3734 3735 3736 3737 3738 3739 
3740 3741 3742 3743 3744 3745 3746 3747 3748 
3749 3750 3751 3752 3753 3754 3755 3756 3757 
3758 3759 3760 3761 3762 3763 3764 3765 3766 
3767 3768 3769 3770 3771 3772 3773 3774 3775 
3776 3777 3778 3779 3780 3781 3782 3783 3784 
3785 3786 3787 3788 3789 3790 3791 3792 3793 
3794 3795 3796 3797 3798 3799 3800 3801 3802 
3803 3804 3805 3806 3807 3808 3809 3810 3811 
3812 3813 3814 3815 3816 3817 3818 3819 3820 
3821 3822 3823 3824 3825 3826 3827 3828 3829 
3830 3831 3832 3833 3834 3835 3836 3837 3838 
3839 3840 3841 3842 3843 3844 3845 3846 3847 
3848 3849 3850 3851 3852 3853 3854 3855 3856 
3857 3858 3859 3860 3861 3862 3863 3864 3865 
3866 3867 3868 3869 3870 3871 3872 3873 3874 
3875 3876 3877 3878 3879 3880 3881 3882 3883 
3884 3885 3886 3887 3888 3889 3890 3891 3892 
3893 3894 3895 3896 3897 3898 3899 3900 3901 
3902 3903 3904 3905 3906 3907 3908 3909 3910 
3911 3912 3913 3914 3915 3916 3917 3918 3919 
3920 3921 3922 3923 3924 3925 3926 3927 3928 
3929 3930 3931 3932 3933 3934 3935 3936 3937 
3938 3939 3940 3941 3942 3943 3944 3945 3946 
3947 3948 3949 3950 3951 3952 3953 3954 3955 
3956 3957 3958 3959 3960 3961 3962 3963 3964 
3965 3966 3967 3968 3969 3970 3971 3972 3973 
3974 3975 3976 3977 3978 3979 3980 3981 3982 
3983 3984 3985 3986 3987 3988 3989 3990 3991 
3992 3993 3994 3995 3996 3997 3998 3999 4000 
4001 4002 4003 4004 4005 4006 4007 4008 4009 
4010 4011 4012 4013 4014 4015 4016 4017 4018 
4019 4020 4021 4022 4023 4024 4025 4026 4027 
4028 4029 4030 4031 4032 4033 4034 4035 4036 
4037 4038 4039 4040 4041 4042 4043 4044 4045 
4046 4047 4048 4049 4050 4051 4052 4053 4054 
4055 4056 4057 4058 4059 4060 4061 4062 4063 
4064 4065 4066 4067 4068 4069 4070 4071 4072 
4073 4074 4075 4076 4077 4078 4079 4080 4081 
4082 4083 4084 4085 4086 4087 4088 4089 4090 
4091 4092 4093 4094 4095 4096 4097 4098 4099 
4100 4101 4102 4103 4104 4105 4106 4107 4108 